,pretty_formula,bandgap,cell_length_a,cell_lentgh_b,cell_lentgh_c,cell_angle_alpha,cell_angle_beta,cell_angle_gamma
3863,Li2CrSn(PO4)2,2.0642000000000005,6.69137000,4.84100800,10.73206452,86.48368018,90.00000000,90.00000000
3864,Li2CrSi7O16,2.0749000000000004,7.74080072,7.67186400,7.26285936,77.22598255,103.84845697,63.04142133
3865,ZnNi9O10,2.0702999999999996,5.19494900,5.99848105,6.70847378,77.09430951,75.01823849,73.21405542
3866,Li2VCrP2(O4F)2,2.0637,5.37201066,10.22574360,7.34716090,76.01483244,73.07426687,99.89994098
3867,LiVSiO4,2.0592,4.97352403,9.24351671,6.24156100,89.99882645,90.00073469,97.01219666
3868,ZnNi9O10,2.0776000000000003,5.19347400,5.99482744,6.71378981,102.91345663,97.48037993,106.77088247
3869,Ca5Mn4O9,2.0514,8.72197345,8.72197345,9.90283086,55.90449266,55.90449266,22.00807081
3870,Cr2OF2,2.0584000000000002,7.31590649,6.48957455,6.01933127,71.47311689,57.25416157,51.27272154
3871,Rb3YO3,2.0568,7.35998814,7.35998814,7.30328935,85.21899673,85.21899673,116.18398688
3872,Hf2N2O,2.067,5.48971400,5.81515300,7.93103811,85.30140213,90.00000000,90.00000000
3873,Li2AgF3,2.0548,2.98787778,2.98787778,8.22096500,90.00000000,90.00000000,119.99999518
3874,Li2FeO2F,2.0675,5.15783249,5.15783249,9.55225685,79.61376678,79.61376678,109.28036438
3875,Ce2Nd2O7,2.0782999999999996,7.85175188,7.85175188,7.85175188,60.00000000,60.00000000,60.00000000
3876,Er(BiO2)3,2.0556,6.99176598,6.99176598,6.99176560,93.00927502,93.00927502,93.00926585
3877,In2Pt2O7,2.049200000000001,7.16322645,7.16322645,7.16322645,60.00000000,60.00000000,60.00000000
3878,LiVF4,2.064,7.00715671,7.00715671,7.19699645,75.66205193,75.66205193,83.14321863
3879,LiVF4,2.0665,5.15387468,5.15387468,6.21127800,90.00000000,90.00000000,93.64424839
3880,Rb2SnO3,2.0717,7.06682667,7.06682667,13.66465500,90.00000000,90.00000000,128.26545283
3881,Li2CrFeO4,2.0535000000000005,5.15322700,5.17358829,5.95031247,106.75159283,89.97635108,99.57876288
3882,LiVF4,2.0607,3.13109300,6.52754000,6.77205300,90.00000000,90.00000000,90.00000000
3883,LiSbO2,2.0515000000000003,5.67163588,5.67163588,5.35659385,66.29376272,66.29376272,103.00553373
3884,NaV3O8,2.0836,8.54792300,5.12260400,7.44279828,78.00665627,90.00000000,90.00000000
3885,Na5GdO4,2.0642,6.11587600,6.13738300,8.45848700,90.00000000,90.00000000,90.00000000
3886,LuWO4,2.0736,6.53928838,6.53928838,6.53928838,133.33894046,133.33894046,68.12236161
3887,LiVF4,2.0836,5.19714400,7.32855600,7.99384733,75.39552608,90.00000000,90.00000000
3888,Li2FePCO7,2.0825,5.06367900,6.42583796,8.50557620,96.27595007,95.97305750,92.85018309
3889,Ca2Ti6N2O11,2.0821,3.75552100,7.71916348,9.59897810,100.89114122,90.14293849,103.80716362
3890,Li3Cr(BO3)2,2.0759000000000003,5.81941264,9.02199000,9.24589763,70.26021274,80.15504662,82.68348479
3891,Li4Ni3WO8,2.08,10.31850741,10.31848077,14.57382532,19.67856877,19.67850412,33.91128105
3892,Li3CoPO5,2.0673999999999997,4.96605300,5.43448000,15.78318500,90.00000000,90.00000000,90.00000000
3893,LiV(SiO3)2,2.0507999999999997,7.37672372,7.48084203,7.03092346,117.80807923,77.57030657,98.89210766
3894,Li3V(PO4)2,2.0591,4.69551138,5.15682356,13.60431544,82.26941717,89.97292877,62.87988025
3895,Li2Cr3(SiO3)4,2.0623,7.60888400,10.24138100,13.89178300,90.00000000,90.00000000,90.00000000
3896,V2Co(HO2)4,2.051,5.69300100,10.77121800,11.91821000,90.00000000,90.00000000,90.00000000
3897,LiVF5,2.0682,8.94225200,5.26554600,9.49580214,58.40592567,90.00000000,90.00000000
3898,Li2VF6,2.081,5.05648600,8.68750800,9.78624300,90.00000000,90.00000000,90.00000000
3899,LiV5F11,2.0778,14.44447100,8.22760100,10.84862466,50.93424460,90.00000000,90.00000000
3900,Li2Co(CO3)2,2.0636,9.59659500,7.68941900,7.82624818,69.12535799,90.00000000,90.00000000
3901,Li5MnO3F,2.0827999999999998,6.35478700,7.03464000,9.51022400,90.00000000,90.00000000,90.00000000
3902,Li2VCrP2(O4F)2,2.0771999999999995,5.22209100,7.34278538,14.98287297,93.88279725,92.60359495,108.58455758
3903,Li3CoO2F,2.0674,5.19967664,5.36102387,5.89202362,116.89959096,88.37989538,93.36634345
3904,Li4Nb2Ni3Sn3O16,2.0723,6.12201849,6.12201849,9.84518309,89.29532649,89.29532649,60.22791157
3905,LiVF5,2.073,5.72976500,7.70916800,16.81361500,90.00000000,90.00000000,90.00000000
3906,Li2Mn4OF8,2.0591,5.44894990,5.44894990,14.68950102,89.28651843,89.28651843,59.03524878
3907,Li2CuPO4,2.0704000000000002,4.96467777,4.96467777,12.02971200,90.00000000,90.00000000,119.99999689
3908,Fe4OF7,2.0682,4.78544200,5.79010300,10.88396602,82.15544839,90.00000000,90.00000000
3909,Li8NiO5F,2.0835,5.51430953,5.51430953,10.85088200,90.00000000,90.00000000,119.99999434
3910,Li3Fe2(CO4)2,2.0556,5.14882800,6.89109500,11.17013357,79.07629093,90.00000000,90.00000000
3911,LiVF4,2.06,5.04455800,7.45481400,7.77505358,77.95249161,90.00000000,90.00000000
3912,LiV(OF)2,2.0792,5.95931900,5.96626800,8.29065871,89.56521139,90.00000000,90.00000000
3913,LiVSiO4,2.0519,5.49890700,8.28365800,18.79596400,90.00000000,90.00000000,90.00000000
3914,Zr6Nb2O17,2.0774000000000004,21.18157278,21.18157278,5.03212662,83.93717474,83.93717474,14.46093887
3915,LiVCO3F2,2.0703,5.71465100,6.66772200,9.00548000,90.00000000,90.00000000,90.00000000
3916,Li3CuS2,2.0597,9.74952174,9.74952174,9.74952174,109.47122063,109.47122063,109.47122063
3917,P3(WO6)2,2.0766,8.88722700,8.78609000,15.06869322,54.72865308,90.00000000,90.00000000
3918,RbVBP2HO9,2.0693,8.47207600,9.53867500,9.82492120,77.58533888,90.00000000,90.00000000
3919,VPO4,2.0763000000000003,4.78393004,8.79355000,6.58851805,89.99850062,89.98558734,89.99978135
3920,LiCrBO3,2.0661,5.27102398,7.91078378,6.01422163,97.74885929,93.67002101,88.48406783
3921,Ga10Si2O19,2.0816999999999997,15.88607441,15.88607441,7.93695700,90.00000000,90.00000000,157.55601304
3922,Li3NbS4,2.0684,18.43527771,13.83108651,13.31386000,85.53079900,48.41482154,46.05437946
3923,SnGeO3,2.0667999999999997,7.25551100,11.73844600,13.42094672,61.10888989,90.00000000,90.00000000
3924,Li4Nb2Fe3O10,2.0498,5.43452353,10.67881765,8.13960926,70.48731063,108.88993239,101.91157758
3925,V3(PO4)2,2.0662000000000003,9.74217200,8.31538500,8.69434879,70.04744530,90.00000000,90.00000000
3926,Li3Fe(BO3)2,2.0778999999999996,6.37590700,8.17763700,9.82683781,63.18306379,90.00000000,90.00000000
3927,Li2VAsCO7,2.0696,5.11913325,8.76229442,6.59727500,89.99994922,90.00013537,86.19594509
3928,Li3Nb7O19,2.0747,6.34289817,6.34289817,20.33741100,90.00000000,90.00000000,120.00000179
3929,NaVCSO7,2.0813,5.30768967,9.78934925,6.46004861,89.95814702,90.02305378,86.65135961
3930,Li2UO4,2.0805000000000002,6.11802145,6.11802145,6.11802145,138.27436841,138.27436841,60.48304952
3931,Li6Fe(BO3)3,2.0524000000000004,16.50047500,6.43980900,7.03248989,76.11985951,90.00000000,90.00000000
3932,LiTiFeO4,2.0614,5.99014700,5.99014700,8.33597400,90.00000000,90.00000000,90.00000000
3933,Li2Fe3SbO8,2.0753,8.60719100,8.60719100,8.60719100,90.00000000,90.00000000,90.00000000
3934,LiFe2OF3,2.0694,6.21986900,6.21986900,8.73434300,90.00000000,90.00000000,90.00000000
3935,CrP6(WO8)3,2.0681,8.90255418,8.90255418,8.90255369,58.91162971,58.91162971,58.91163342
3936,Hf2N2O,2.0671,8.67821900,8.74673394,8.75444093,109.67206258,109.33319367,109.16305374
3937,V2O5,2.08,5.35981900,8.95097200,10.22974289,65.40908859,90.00000000,90.00000000
3938,Hf2N2O,2.0572999999999997,8.71071900,8.72468343,8.72992547,109.27055505,109.55878118,109.37628277
3939,Hf2N2O,2.0534,8.71234900,8.73039262,8.73534400,109.34705286,109.54220172,109.37040337
3940,Li3FeB8O15,2.0487,11.46482300,9.24305900,11.99451359,89.09882777,90.00000000,90.00000000
3941,Li2Mn(BO3)2,2.0703,5.96998805,7.73137000,5.43937113,90.00119000,118.06520040,89.99989830
3942,V6O5F19,2.0716,5.33867000,5.48393893,14.81947971,100.59683911,90.02610104,90.87188160
3943,LaTa2NO5,2.0492,5.52784400,7.74141368,11.31722639,89.96766149,89.59580040,89.96225386
3944,NaV(PO4)2,2.0668,8.22011500,8.22011500,10.15724800,90.00000000,90.00000000,90.00000000
3945,Hf2N2O,2.0581000000000005,8.72354500,8.72698143,8.72707297,109.38088796,109.33160363,109.48250340
3946,Hf2N2O,2.0673000000000004,8.72168600,8.72604038,8.74267970,109.47083481,109.55385872,109.28551651
3947,Hf2N2O,2.0569999999999995,8.71948000,8.72188424,8.72730294,109.49246371,109.56109397,109.18316132
3948,Hf2N2O,2.0603,8.71123000,8.71967602,8.73520363,109.43835006,109.39066017,109.44076927
3949,Hf2N2O,2.0672999999999995,8.70763700,8.73026532,8.73707889,109.57657817,109.32722330,109.35068391
3950,LiVSiO5,2.0539,4.49654500,8.99516100,9.32152100,90.00000000,90.00000000,90.00000000
3951,Na5LaO4,2.069,15.36469300,15.36469300,5.57121600,90.00000000,90.00000000,90.00000000
3952,P3(WO6)2,2.061,9.09629386,9.09629386,9.09629328,57.17694788,57.17694788,57.17694621
3953,V6O5F19,2.0736,5.29305000,5.49263705,14.76392000,100.38196992,89.89354191,90.80717552
3954,LiCrP3H8O13,2.0673000000000004,7.53608500,8.67382900,9.68026583,102.74609416,89.43666103,107.48263221
3955,LiMnF4,2.0564999999999998,4.69577300,5.81727800,10.17431200,90.00000000,90.00000000,90.00000000
3956,Fe7(OF3)3,2.0584,5.49466797,5.70534901,9.13027398,75.42365100,90.49152020,117.85925424
3957,CaGeO3,2.0509999999999997,5.33181000,5.37445300,7.55271200,90.00000000,90.00000000,90.00000000
3958,Tl4SiS4,2.0501,8.75744255,8.75744255,7.80755750,72.29889034,72.29889034,84.38294774
3959,V6O5F19,2.0484,5.37689400,5.61174539,14.80702415,100.36633262,89.63201576,93.10651811
3960,Li2Mn3(SiO4)2,2.0505999999999998,5.12390800,9.06894913,13.64535774,108.41403674,100.36917759,90.49256679
3961,Li2V3SbO8,2.0777,8.61757300,8.61757300,8.61757300,90.00000000,90.00000000,90.00000000
3962,LiFe(SO4)2,2.0749,8.39709000,8.40534572,8.93003917,62.28129779,62.42477044,60.22302883
3963,FeP6(WO8)3,2.0733,8.91247278,8.91247278,8.91247349,58.96039018,58.96039018,58.96038996
3964,Li3P7W5O29,2.0735,6.54310000,10.84966175,19.05679977,91.86185720,94.97547706,107.42131622
3965,Ta2Co4O9,2.0593,5.20793028,5.20793028,14.31473600,90.00000000,90.00000000,120.00000351
3966,PmI3,2.0717,11.49968445,11.49968445,4.10335800,90.00000000,90.00000000,120.00000259
3967,AcCrO3,2.0832000000000006,3.98931300,3.98931300,3.98931300,90.00000000,90.00000000,90.00000000
3968,KSiBiS4,2.0504999999999995,6.80900200,6.55843300,17.55955502,72.54897951,90.00000000,90.00000000
3969,Li2SnTeO6,2.0587,5.01320700,5.28490000,8.63693900,90.00000000,90.00000000,90.00000000
3970,Li7V(O2F)2,2.059,5.52295468,10.41518079,9.85261856,107.60596281,90.33596520,90.82342788
3971,TlN3,2.0640999999999994,5.83078263,5.83078263,5.83078263,113.84135099,113.84135099,101.04552774
3972,K2TaCuSe4,2.0545,14.03645240,12.55419607,7.48871514,84.91470317,62.98391137,32.10138546
3973,Li2La2Ti3O10,2.0733000000000006,13.65683590,13.65683590,13.65683590,163.67981075,163.67981075,23.15963146
3974,Li2UO4,2.0700999999999996,5.18215600,6.10495300,10.67378600,90.00000000,90.00000000,90.00000000
3975,NiH2SeO5,2.0788,5.16956562,7.96480371,5.16705469,71.93596868,87.94158089,71.96678754
3976,BaHo2PdO5,2.0547999999999997,6.55254400,6.55254400,5.91639500,90.00000000,90.00000000,90.00000000
3977,LaMoN3,2.0601000000000003,7.44619543,7.44619543,6.38211742,76.47599390,76.47599390,85.75856600
3978,TlGeBr3,2.0702,5.56048449,5.56048449,5.55133021,89.10866834,89.10866834,89.29557562
3979,CaFe2P2O9,2.058,6.47724000,7.49594400,14.39737600,90.00000000,90.00000000,90.00000000
3980,CaHo(WO3)2,2.056,5.78243800,5.49720900,9.79321213,55.99498033,90.00000000,90.00000000
3981,CaMo3P3O13,2.0513000000000003,6.68475400,7.83988200,10.72022981,80.15397570,90.00000000,90.00000000
3982,AlCr2O4,2.0837000000000003,5.99699796,5.99699796,5.99699724,59.64995116,59.64995116,59.64995126
3983,ZnCr2O4,2.0598,2.94625200,9.00905900,10.57362600,90.00000000,90.00000000,90.00000000
3984,CaLa2WO6,2.0617,5.85725149,5.85725149,5.85725232,61.60214265,61.60214265,61.60214480
3985,Zn(BiO2)2,2.0733,3.48652800,6.69720584,10.31556773,101.60324799,99.37518978,104.32802211
3986,MgBi2(PO5)2,2.0539999999999994,10.14918445,8.57345813,7.96716991,75.60003705,54.90546075,49.49450220
3987,YBiO3,2.0624,6.61361336,6.61361336,13.08213500,90.00000000,90.00000000,119.99999363
3988,Ca3W2O7,2.0521000000000003,10.27357854,10.27357854,5.79283100,90.00000000,90.00000000,148.03026108
3989,Mg(BiO2)2,2.0744999999999996,3.36026700,10.67186200,11.61922100,90.00000000,90.00000000,90.00000000
3990,Mg3Co3(AsO4)4,2.0777,5.15983400,8.67642800,16.05039820,67.71579679,90.00000000,90.00000000
3991,Zn3Ni3(AsO4)4,2.0579,5.18426100,8.56137500,15.82139662,69.71033829,90.00000000,90.00000000
3992,Zn2BiWO6,2.0632000000000006,5.49181500,5.53318873,5.67021597,88.75122417,105.11273940,113.13378460
3993,Ca(SnO2)2,2.0610999999999997,6.34086500,6.94090100,11.95796300,90.00000000,90.00000000,90.00000000
3994,Ca2Sn3O8,2.0677,6.48343799,6.48343799,10.53257800,90.00000000,90.00000000,119.99999990
3995,VZnAs2O7,2.0538999999999996,8.16845100,7.84950200,11.07130009,58.78937804,90.00000000,90.00000000
3996,Sn(GeO3)2,2.0538,9.16107600,5.63226400,10.01726501,75.13517993,90.00000000,90.00000000
3997,Ca3Fe4(WO4)6,2.0534999999999997,7.36493700,8.73102362,10.59044599,105.03885409,106.04623211,103.56810513
3998,MgV3(P2O7)2,2.0595999999999997,7.73552800,7.45711700,9.55191941,68.31667600,90.00000000,90.00000000
3999,V3ZnO7,2.0700000000000003,5.40715400,10.18031700,10.27496700,90.00000000,90.00000000,90.00000000
4000,UCd2O5,2.1089,6.36848616,6.36848616,8.21624359,72.34881201,72.34881201,49.98273681
4001,NaMo3P3O13,2.0945,6.68194400,7.63028700,10.90770130,80.97996247,90.00000000,90.00000000
4002,CsCuC2,2.1164,4.93673800,4.93673800,9.22528100,90.00000000,90.00000000,90.00000000
4003,BaMg30NiO32,2.0902999999999996,8.65544000,8.65544000,8.63346000,90.00000000,90.00000000,90.00000000
4004,Mg30VNiO32,2.0884,8.51629100,8.51629100,8.52468800,90.00000000,90.00000000,90.00000000
4005,Mg30ZnSnO32,2.0846999999999998,8.59842000,8.59842000,8.57604100,90.00000000,90.00000000,90.00000000
4006,SrMg30MnO32,2.114,8.63614000,8.63614000,8.60086200,90.00000000,90.00000000,90.00000000
4007,RbLiMg30O31,2.1036999999999995,8.64460100,8.64460100,8.60871500,90.00000000,90.00000000,90.00000000
4008,CaO,2.1029,8.83411299,8.83411299,8.83411299,158.23773274,158.23773274,30.96737989
4009,PbS,2.0879,4.24449541,4.24449541,16.68675553,86.85970224,86.85970224,89.93459681
4010,Hf2SN2,2.0913999999999997,6.34501901,6.34501901,6.34501901,147.87617353,141.78793596,50.75575584
4011,Cs2AgBiCl6,2.1138,7.74857652,7.74857652,7.74857652,60.00000000,60.00000000,60.00000000
4012,RbLuSe2,2.1094,8.33399170,8.33399170,8.33399209,28.95847335,28.95847335,28.95847625
4013,La2HfNiO6,2.1094,5.69814929,5.69814929,5.69814929,60.00000000,60.00000000,60.00000000
4014,Ba3CaO4,2.11,5.47877200,5.47877200,5.47877200,90.00000000,90.00000000,90.00000000
4015,CaO,2.0869,3.33350702,3.33350702,16.74898800,90.00000000,90.00000000,90.10109397
4016,Sm2Fe2O5,2.0862,3.89870400,4.16620175,8.00078094,86.71080697,87.64155640,89.25019112
4017,Rb3NaH4,2.1029999999999998,5.84403100,5.84403100,5.84403100,90.00000000,90.00000000,90.00000000
4018,H6PbCBr3N,2.1129,8.06459100,8.77600700,12.08306300,90.00000000,90.00000000,90.00000000
4019,Ta3AgO8,2.0967000000000002,7.35218941,7.35218941,7.35218941,122.95139246,119.91592992,87.55524450
4020,NbOF3,2.0897,5.20534513,5.20534513,5.20534513,136.11936959,133.28484868,66.02039947
4021,Y3NbO7,2.0841,8.18122425,8.18122425,5.37999200,90.00000000,90.00000000,125.50558008
4022,NaCoO2,2.1004000000000005,3.00972721,3.00972721,5.50827100,90.00000000,90.00000000,119.99998274
4023,NaFe(SO4)2,2.116,8.17625519,10.46469375,8.64341949,107.68285109,116.85628245,90.01284746
4024,Co(BO2)2,2.0848000000000004,4.45633828,5.50810424,9.73570207,92.02048325,81.35062298,74.58738037
4025,Na2AgAsF6,2.0986,6.24928245,6.24928245,6.24928245,60.00000000,60.00000000,60.00000000
4026,K2NaSbI6,2.1041999999999996,8.69401364,8.69401364,8.69401364,60.00000000,60.00000000,60.00000000
4027,Li2AlAgF6,2.0879999999999996,5.89561875,5.89561875,5.89561875,60.00000000,60.00000000,60.00000000
4028,CsYCdSe3,2.0858,8.46932576,8.46932576,11.22843500,90.00000000,90.00000000,150.52977012
4029,Na3SbI6,2.0998,8.63770248,8.63770248,8.63770248,60.00000000,60.00000000,60.00000000
4030,K2NdCuI6,2.0879000000000003,8.43742014,8.43742014,8.43742014,60.00000000,60.00000000,60.00000000
4031,K2PrCuI6,2.1159,8.47216030,8.47216030,8.47216030,60.00000000,60.00000000,60.00000000
4032,K2ScAuCl6,2.1007,7.38662411,7.38662411,7.38662411,60.00000000,60.00000000,60.00000000
4033,K2LuAuCl6,2.0993000000000004,7.52157120,7.52157120,7.52157120,60.00000000,60.00000000,60.00000000
4034,Cs2NaSbI6,2.0974000000000004,8.77105434,8.77105434,8.77105434,60.00000000,60.00000000,60.00000000
4035,Rb2PrCuI6,2.0897,8.49839821,8.49839821,8.49839821,60.00000000,60.00000000,60.00000000
4036,Cs3AlI6,2.108,9.04590674,9.04590674,9.04590674,60.00000000,60.00000000,60.00000000
4037,Cs2PrCuI6,2.0962,8.54328676,8.54328676,8.54328676,60.00000000,60.00000000,60.00000000
4038,Rb2LuAuCl6,2.1098000000000003,7.55017933,7.55017933,7.55017933,60.00000000,60.00000000,60.00000000
4039,Rb2ScAuCl6,2.0871000000000004,7.43235412,7.43235412,7.43235412,60.00000000,60.00000000,60.00000000
4040,Rb2AgBiCl6,2.088,7.69175907,7.69175907,7.69175907,60.00000000,60.00000000,60.00000000
4041,RbTlF3,2.1048999999999998,6.82286343,6.82286343,6.82286343,60.00000000,60.00000000,60.00000000
4042,Rb2NaSbI6,2.101,8.72588294,8.72588294,8.72588294,60.00000000,60.00000000,60.00000000
4043,Mg3Si3(WO6)2,2.1107000000000005,10.47578623,10.47578623,10.47578623,109.47122063,109.47122063,109.47122063
4044,Fe(PO3)4,2.0933,9.20868400,9.39897900,11.92744700,90.00000000,90.00000000,90.00000000
4045,Li2VOF4,2.1068000000000002,5.10673600,10.34076467,7.49225359,79.63297419,70.07510551,104.29146857
4046,Li2V2P4H6O17,2.0968999999999998,8.92788200,9.13330170,9.33429897,118.13594539,89.90801906,100.06185154
4047,Li12Mn3CoP4(CO7)4,2.1017000000000006,6.58780000,8.53246600,10.00481210,85.49412051,90.00000000,90.00000000
4048,FeO,2.0878,5.31915444,5.31915444,10.50193800,90.00000000,90.00000000,120.00000549
4049,Ce2Y2O7,2.0848000000000004,3.85038900,3.85038900,10.89999600,90.00000000,90.00000000,90.00000000
4050,Ca2Ti6N2O11,2.0837000000000003,7.73896046,7.73896046,9.43948847,80.66974217,80.66974217,28.22540596
4051,BaLaI5,2.0866999999999996,11.70585949,11.70585949,8.04239548,88.94184793,88.94184793,147.82052357
4052,AlFeO3,2.1124,4.96358685,4.96334870,9.49449421,105.15160027,90.00137238,119.99849084
4053,Cs3DyO3,2.0866999999999996,15.10839000,7.56464200,7.98314165,63.33272640,90.00000000,90.00000000
4054,SeO3,2.0848999999999998,5.58169000,6.12633800,9.45200500,90.00000000,90.00000000,90.00000000
4055,Th(NF2)4,2.1147,7.80777500,8.42101037,8.72400431,98.71728449,90.95536094,103.10497380
4056,Sc(NF2)3,2.0986999999999996,6.49504978,6.53266217,7.43834221,55.31834432,56.99043420,69.67928262
4057,Sb2Te2O9,2.0837000000000003,5.05332200,14.63838700,22.70545215,71.37812702,90.00000000,90.00000000
4058,RbF3,2.1149,6.88777400,4.64284200,9.66344021,88.91481565,90.00000000,90.00000000
4059,Rb2UO3F4,2.1153,10.69587900,12.74238200,13.33637900,90.00000000,90.00000000,90.00000000
4060,La3FeO6,2.091,7.58701475,7.58701475,5.73726800,90.00000000,90.00000000,103.01653316
4061,Na2Zr2O5,2.1094,4.03961100,4.03961100,8.13961800,90.00000000,90.00000000,90.00000000
4062,Nd3FeO6,2.0980000000000003,7.42948587,7.42948587,5.67456200,90.00000000,90.00000000,102.78011773
4063,Ca2CrSbO6,2.1014,5.47713097,5.60151400,15.59707424,90.00002216,90.21746414,89.99811746
4064,Ba2ZnS3,2.0968,4.29972900,8.90969300,17.20432100,90.00000000,90.00000000,90.00000000
4065,TiO2,2.1067,4.84383200,4.99585600,9.44241000,90.00000000,90.00000000,90.00000000
4066,NdHO,2.1056,7.92741600,7.92741600,5.59002200,90.00000000,90.00000000,90.00000000
4067,Li2In2SiS6,2.1156,7.08347390,7.08347390,12.23673582,72.80075987,72.80075987,60.42138321
4068,Ba4In2Te2S5,2.0863000000000005,8.51026100,8.51026100,11.17999500,90.00000000,90.00000000,90.00000000
4069,ErMoBrO4,2.0984,6.92512000,7.24497667,10.92927859,104.36636050,107.56649923,94.01632301