,pretty_formula,bandgap,cell_length_a,cell_lentgh_b,cell_lentgh_c,cell_angle_alpha,cell_angle_beta,cell_angle_gamma
1617,La6Cd(SiS7)2,1.9419999999999993,10.44225739,10.44225739,5.77536500,90.00000000,90.00000000,119.99999615
1618,La4As2(S2O)3,1.9165999999999999,11.74071398,11.74071398,11.74071398,150.86017057,117.65607404,70.26945897
1619,La4GdSc15(BO3)20,1.9397000000000002,7.83550273,7.83550273,18.94498161,87.67515651,87.67515651,78.40665583
1620,KNb5Pb2O15,1.9198000000000002,13.03218743,13.03218743,3.96758900,90.00000000,90.00000000,92.45202779
1621,K2Na(SbO3)3,1.9110999999999998,9.62874600,9.62947000,9.63062900,90.00000000,90.00000000,90.00000000
1622,K6Zn4Sn5S17,1.9285,11.07256427,11.07256427,11.02569873,78.61180081,78.61180081,126.99769831
1623,HRuRh(CO)6,1.9192,10.15537700,10.25725457,10.44421831,94.81588883,90.42910444,98.21118414
1624,CeZr2O6,1.9108,3.72916557,3.72916557,9.02041800,90.00000000,90.00000000,119.99999246
1625,CeZrO4,1.9377000000000004,6.44741943,6.44741943,6.44741966,34.06248328,34.06248328,34.06248892
1626,Ce2ZrO6,1.9291999999999998,6.60246532,6.60246532,7.61240368,72.88452593,72.88452593,47.96009551
1627,BaNaSr3(SbO4)3,1.9369,8.28602548,8.28602548,8.23034000,90.00000000,90.00000000,90.82759809
1628,BaGa2GeSe6,1.9417000000000002,6.63780300,6.67983054,6.68090444,100.30294078,100.65863378,99.85431488
1629,Ba3Lu2MoO9,1.9288000000000003,6.00887217,6.00887217,7.35851700,90.00000000,90.00000000,120.00000191
1630,Ba4CaMn2MoO12,1.9363000000000001,5.92985000,20.04839392,5.92978527,98.50527986,120.00037075,90.00014882
1631,Ba3Sm2WO9,1.9397000000000006,10.75011940,10.75011940,10.75011940,146.46845423,131.65245049,60.11952420
1632,Ba5Ce4ZrO15,1.9356000000000004,6.22479400,6.23105591,25.63030371,83.12578926,83.17214978,60.45174651
1633,Nd2MgS4,1.9329,3.97321700,12.95817400,14.00433900,90.00000000,90.00000000,90.00000000
1634,Lu2MgSe4,1.9156,7.45590422,7.45590422,7.45590422,110.30752645,110.30752645,107.81125294
1635,SbPH2F10,1.9386999999999999,11.29806600,5.58735800,13.79161289,81.60213155,90.00000000,90.00000000
1636,MgO,1.9173000000000004,9.74147744,10.46111219,8.98087511,87.32552216,92.03941545,86.39793833
1637,Ca3Sc2N4,1.9336000000000002,5.88687500,11.28470700,9.33264500,90.00000000,90.00000000,90.00000000
1638,TaAgN2,1.9419999999999997,5.92368400,11.86738200,14.48330000,90.00000000,90.00000000,90.00000000
1639,MgGe7N10,1.9088999999999996,7.01809494,7.33345606,10.30813638,90.00000000,104.88137183,90.00000000
1640,Si2AgN3,1.9138000000000002,2.85677600,2.85677549,25.74472700,90.00000000,90.00000000,120.00000591
1641,AlW3O8,1.9312,5.16991100,5.61104117,5.87573821,109.69977244,87.68218860,104.09311597
1642,AlCr(WO4)2,1.9129999999999994,5.02399000,5.79633251,6.65503974,65.45539295,80.58051975,71.44120456
1643,La13Al12Si18(N13O5)3,1.9120999999999997,11.76635902,11.74766347,11.74766295,109.43895965,109.50346049,109.50346503
1644,Li3MnOF4,1.9379,5.27070997,5.51547503,7.51960600,109.93178651,69.10813326,103.21475373
1645,MnO2,1.9372000000000003,7.17139435,7.17139474,7.17139464,23.52919495,23.52920047,23.52920042
1646,V2Si2O7,1.9421999999999997,6.35301695,6.62144918,6.61735102,79.01932232,109.57915868,109.59905834
1647,CuBS2,1.9145999999999992,5.75151568,5.75151568,5.75151568,128.33757504,128.33757504,76.07880461
1648,Li2V(OF)2,1.9109000000000003,5.76754790,5.91919526,8.62636000,89.99989361,90.00024455,91.61956136
1649,Li2V(OF)2,1.9125,5.91283377,5.97109159,10.12085480,87.81114115,106.93296829,119.67665438
1650,VZnPO5,1.9234999999999998,5.50676139,7.20518756,10.78812080,100.78047257,101.22159960,108.26176747
1651,Li4Cr3CoO8,1.936,5.09607442,9.84401966,5.90114568,90.29355974,89.67166963,100.07756250
1652,Li2PdF6,1.9280000000000002,4.74466100,4.74466100,9.25582200,90.00000000,90.00000000,90.00000000
1653,LuAu2F9,1.9441,9.12945600,11.19143500,21.73646200,90.00000000,90.00000000,90.00000000
1654,TbCu(MoO4)2,1.9353999999999998,9.90519100,10.30958000,14.75352000,90.00000000,90.00000000,90.00000000
1655,K3Nb3(BO6)2,1.9205999999999999,8.94319247,8.94319247,3.96600900,90.00000000,90.00000000,120.00000344
1656,K3P11,1.9334,10.73836200,10.86902000,13.91983500,90.00000000,90.00000000,90.00000000
1657,CaLaTaCrO6,1.9325,5.65486600,10.08941450,10.20122918,65.56933084,90.00087799,90.00054860
1658,V2OF5,1.9162,5.30286669,13.49580891,5.30224545,90.02359703,59.96142776,90.00568740
1659,V2OF5,1.9123,5.28246571,13.50844484,5.28122730,89.98395279,59.89082883,89.95766063
1660,CoSb(PO4)2,1.9160999999999997,7.97125072,8.05586850,10.08776457,86.70598539,88.07058408,103.36076043
1661,Ca2V3O8,1.9203,6.06596788,6.06197030,10.56379326,90.02429648,90.01686391,60.03835127
1662,Li4Ti3Co2Sn3O16,1.9390999999999998,6.17429669,9.86655191,6.11732300,89.86639746,60.03382507,89.98237536
1663,Ba4Tb2Cd3S10,1.9398999999999997,9.37230770,9.37230770,26.94282500,90.00000000,90.00000000,154.16126240
1664,BaV2(P2O7)2,1.9280000000000004,7.59337531,7.59337531,9.94840188,80.60776657,80.60776657,89.41832445
1665,Mn3V2O8,1.9247,6.32940402,6.75213487,8.62032108,90.00000000,90.00000000,117.94971703
1666,Ta2MnZn2O8,1.9115000000000002,10.27173454,10.27173454,5.31981275,89.83280393,89.83280393,33.83441165
1667,CrNiO4,1.9393000000000002,5.02065489,6.29715600,5.02065482,90.00000000,113.18558184,90.00000000
1668,VPO4,1.9277000000000002,5.28950301,7.91787900,6.47193901,90.00006435,90.00503611,90.00015542
1669,Rb2NaMnO4,1.9215999999999998,6.08634800,6.07124200,7.97168099,87.16797576,90.00000000,90.00000000
1670,Li2MnO3,1.9342,5.00244689,5.00244388,9.73411427,85.21902347,85.21904555,119.89705373
1671,Sr2MnWO6,1.9448999999999996,5.74659981,8.12984601,5.79004100,90.00000000,90.00000000,90.07632159
1672,KCr3O8,1.9151000000000002,5.23204083,5.23204051,15.72842237,86.89365899,86.89368361,63.86079532
1673,Na4Fe2O5,1.9196000000000002,5.77272600,9.25428300,13.12653545,62.06640144,90.00000000,90.00000000
1674,PbCN2,1.9314999999999998,3.92452000,5.59567000,12.42091600,90.00000000,90.00000000,90.00000000
1675,CoPb2WO6,1.9432,5.72539040,8.03104890,5.77952592,89.82161515,90.00331238,90.00033494
1676,Lu6UO12,1.9343000000000004,6.43849378,6.43849378,6.43849308,99.19852770,99.19852770,99.19852652
1677,UO3,1.9294000000000002,5.24846100,5.54243700,7.56825200,90.00000000,90.00000000,90.00000000
1678,NaFe(SiO3)2,1.9115000000000002,5.36311508,9.64697654,8.90723400,89.99992698,89.99999981,104.12173751
1679,NaFe(WO4)2,1.9172999999999998,5.82968000,5.07777900,10.02599125,89.07936396,90.00000000,90.00000000
1680,CrPb2O5,1.9221999999999997,7.60967453,7.60967453,7.26171135,68.98883225,68.98883225,45.03499098
1681,Sr2BrN,1.9250999999999996,7.75010765,7.75010765,7.75010690,29.58091042,29.58091042,29.58091265
1682,Pb5(SI3)2,1.9431999999999996,7.86460754,7.86460754,15.01029181,81.87949004,81.87949004,33.37834292
1683,AlBiO3,1.9383999999999997,3.78719400,3.78719400,3.78719400,90.00000000,90.00000000,90.00000000
1684,Ba2BiSbO6,1.9255999999999993,6.10849442,6.10849442,6.15658155,60.01430178,60.01430178,60.00222659
1685,SbPbClO2,1.9131,6.89805100,6.89805100,5.50581300,90.00000000,90.00000000,131.42074209
1686,IO3,1.9146,5.33328900,6.85147550,6.90529766,98.05289250,95.82031832,104.65704162
1687,Hg3(SCl)2,1.9402,7.98592336,7.98592336,7.98592336,109.47122063,109.47122063,109.47122063
1688,Bi2WO6,1.9222000000000001,5.48650800,5.51803500,17.10778100,90.00000000,90.00000000,90.00000000
1689,SIO3F,1.9303000000000001,5.72044900,12.50680100,13.71273400,90.00000000,90.00000000,90.00000000
1690,BaTa2Bi2O9,1.9120999999999997,12.93976145,12.93976145,12.93976145,162.35730040,162.35730040,25.05115198
1691,K3AlH6,1.9303000000000003,6.20344564,6.20344564,6.20344564,123.70785427,123.70785427,83.68947257
1692,CaCoAsHO5,1.9298000000000002,6.00421800,7.58981000,9.08435300,90.00000000,90.00000000,90.00000000
1693,VFeH2O5,1.9184,5.56057200,5.70972824,6.76819061,100.49305977,95.03978208,107.19249355
1694,Li3Fe(PO4)2,1.9313000000000002,4.93601294,4.93601294,6.27346495,89.57718528,89.57718528,67.10651816
1695,Li5V2P5O18,1.9116,9.38355307,10.64637147,6.53451007,93.05641288,91.46383663,96.59760346
1696,Li3V2(PO4)3,1.9356,8.44165413,8.44165413,8.60236836,61.92053176,61.92053176,63.29817339
1697,Na2Mn3Cl8,1.9366,7.88146632,7.88146632,7.88146574,56.83161528,56.83161528,56.83161857
1698,Sb2XeF14,1.9429999999999998,8.22895747,8.49516295,9.81400881,67.39011393,89.52802034,67.84012400
1699,IrCl3,1.9402000000000001,6.14237224,6.14237224,6.51518885,81.23608318,81.23608318,119.97998905
1700,K4I2O9,1.9410000000000003,6.29357490,6.29357490,15.71482200,90.00000000,90.00000000,120.00000943
1701,Hg3(TeCl)2,1.9227000000000003,8.36291288,8.36291288,8.36291288,109.47122063,109.47122063,109.47122063
1702,Ag2Mo2O7,1.9177000000000002,6.17287700,7.74705925,7.76071843,111.66372584,110.37082301,93.08969171
1703,Ga2TeSe2,1.9165999999999999,7.60693134,7.60693134,7.60693134,121.48964446,121.48964446,87.43866145
1704,Hg3TeBr4,1.9357,13.03067400,13.25382600,13.38468700,90.00000000,90.00000000,90.00000000
1705,TlGeI3,1.9175000000000004,4.45466500,10.41024100,16.56718100,90.00000000,90.00000000,90.00000000
1706,Ag5CF4,1.9276999999999997,7.54022900,7.54022900,10.63330000,90.00000000,90.00000000,90.00000000
1707,Hg4P2O7,1.9381000000000002,5.03841900,9.48693000,12.43370412,50.22791830,90.00000000,90.00000000
1708,Ba5Pt2O9,1.9392999999999998,10.34119785,10.34119785,9.03017600,90.00000000,90.00000000,119.99999904
1709,Hg2WO4,1.9326999999999999,7.44288544,7.44288544,5.06804819,75.36244985,75.36244985,106.35305872
1710,Li4HN,1.9362999999999997,6.04013068,6.04013068,6.04013068,132.59993984,132.59993984,69.28312169
1711,RbCr3O8,1.9312,5.25645324,16.45445622,5.25645769,85.91228302,63.57100639,85.91230908
1712,Cd2(TeO3)3,1.9308999999999998,7.42432600,9.51033900,13.46198721,57.20565056,90.00000000,90.00000000
1713,Dy2S3,1.9327999999999994,13.77126274,13.77126274,13.77126274,144.81900589,144.81900589,50.60432883
1714,Y2S3,1.9253,13.80739017,13.80739017,13.80739017,144.78567745,144.78567745,50.65402887
1715,La2S3,1.9203999999999999,14.47662522,14.47662522,14.47662522,144.75349753,144.75349753,50.70202154
1716,PrSO,1.9410999999999996,6.04564600,5.86666100,6.56263686,76.91115283,90.00000000,90.00000000
1717,Ba(NdS2)2,1.9350999999999998,7.67853872,7.67853872,7.67853872,109.46163183,109.46163183,109.49039995
1718,LiSmS2,1.9213999999999998,6.88693414,6.88693414,6.88693414,132.37508247,132.37508247,69.63726614
1719,Sr(AlTe2)2,1.9336000000000002,6.84805905,6.84805905,6.84805905,103.98394836,103.98394836,121.11114597
1720,TlGaS2,1.9446000000000003,7.40909810,7.40909810,15.42691223,83.04223334,83.04223334,89.99467400
1721,Ge3N4,1.9272,5.87722266,5.87722266,5.87722266,60.00000000,60.00000000,60.00000000
1722,K2Li14Pb3O14,1.923,8.49039349,8.49039349,8.49039349,128.62637938,122.96022951,80.31123401
1723,Rb2Li14Pb3O14,1.9346,8.52000280,8.52000280,8.52000280,128.64075440,123.24280111,80.05961089
1724,S2N2O,1.9159999999999997,8.35301700,9.26182100,10.83576007,65.68778026,90.00000000,90.00000000
1725,CsPS3,1.9445000000000001,7.67704660,7.67704660,7.67704660,122.80778116,104.86377488,101.63380753
1726,K2Na3InO4,1.9198999999999997,7.63954200,9.38156300,9.65842300,90.00000000,90.00000000,90.00000000
1727,NaInO2,1.9169999999999998,5.85446957,5.85446957,5.85446951,32.60110322,32.60110322,32.60110720
1728,FeClO,1.9144,5.12028665,5.07908876,9.00368809,76.08849141,75.93342908,98.42096814
1729,KFeP2O7,1.9316999999999998,10.15359100,7.48921700,8.32816477,73.32662989,90.00000000,90.00000000
1730,Li3Fe2(AsO4)3,1.9329,9.09356800,8.76483400,15.13379885,55.38220762,90.00000000,90.00000000
1731,Ba2Fe2S2OF2,1.9139999999999997,4.19027264,4.18999905,19.42657381,90.00171524,90.00266415,89.99353392
1732,Sr2TiO4,1.9442,6.92292873,6.92292873,6.92292873,147.04054938,147.04054938,47.30374598
1733,CsMnF4,1.9449,8.12287000,8.12287000,6.48581200,90.00000000,90.00000000,90.00000000
1734,ZnS,1.9339,3.85097509,3.85097509,81.82868100,90.00000000,90.00000000,119.99998445
1735,LiCoF4,1.9285,4.74461800,5.53173400,5.62228342,65.62488690,90.00000000,90.00000000
1736,K10MnMo7O27,1.931,8.13197800,10.82050700,18.77775600,90.00000000,90.00000000,90.00000000
1737,CdGe(BiO3)2,1.9183,5.70321300,10.36484000,14.75445285,45.90941671,90.00000000,90.00000000
1738,KUNbO6,1.9425999999999999,7.63426300,10.47445300,13.63424900,90.00000000,90.00000000,90.00000000
1739,SbTe(IF2)3,1.9328,10.91017400,8.70661200,13.42343144,80.26131841,90.00000000,90.00000000
1740,Rb3FeO3,1.9256000000000002,6.98219053,10.43575469,8.97820506,98.45884569,69.18399468,101.42230214
1741,ZnS,1.9316999999999998,3.85306100,3.85306100,75.56413100,90.00000000,90.00000000,120.00001722
1742,Pr5Ti4FeO17,1.9418000000000002,5.54064400,7.78651600,32.15888294,82.99639727,90.00000000,90.00000000
1743,Zn3Fe2(SeO3)6,1.9131999999999998,8.53004400,7.80825900,12.72240114,83.42981435,90.00000000,90.00000000
1744,Rb2Ag2GeS4,1.9380000000000002,11.91783714,11.91783714,6.40020668,82.00011845,82.00011845,142.54210803
1745,Li2ZnSn3O8,1.9426999999999999,10.67483225,10.67483225,10.05516100,90.00000000,90.00000000,120.04970094
1746,K2U3(IO5)4,1.9159000000000002,7.07802100,8.05994170,9.23148350,92.01380565,105.37874431,91.39057865
1747,Ba6V4S11O5,1.9141000000000001,7.68888500,14.07960300,23.61650200,90.00000000,90.00000000,90.00000000
1748,RbBiAs6H24C8(S6N)2,1.9200999999999997,11.17895581,11.17895581,11.17895611,53.38964913,53.38964913,53.38964792
1749,Ca3Mn2(Si2O7)2,1.9362999999999997,9.41907053,9.41907053,10.17611826,60.00865677,60.00865677,48.51824308
1750,Mn3Nb2ZnO9,1.9221,5.36636576,5.36636576,14.53427600,90.00000000,90.00000000,119.99999699
1751,CdHg4C6S6(Br2N3)2,1.9326,15.24002789,12.39695364,10.00049776,85.04045818,54.13516413,40.82437769
1752,KV4P7O24,1.9425,10.26458800,10.37746153,10.84352675,108.80334649,111.68263982,104.42620712
1753,Ga2Pb2S5,1.9189000000000003,11.21487800,12.12488200,12.57454900,90.00000000,90.00000000,90.00000000
1754,Li3U7(PO7)5,1.9176,10.05756600,10.05756600,14.77228800,90.00000000,90.00000000,90.00000000
1755,Fe2WC10(SeO5)2,1.9429,7.16829400,9.62934892,14.18161614,82.61209207,82.52416149,86.23640184
1756,Li2U4W4O25,1.9313,7.77273192,7.77273192,22.50348338,81.61609568,81.61609568,49.14045140
1757,Ba2InClO3,1.9111000000000002,4.28799500,4.28799500,15.27099200,90.00000000,90.00000000,90.00000000
1758,SrCrF4,1.9179000000000002,6.88028198,6.88028198,6.88028198,130.48641079,130.48641079,72.63034537
1759,HoCu(MoO4)2,1.9220999999999997,9.83901400,10.26571400,14.68120700,90.00000000,90.00000000,90.00000000
1760,V3Cd5P6O25,1.9101000000000004,8.90343033,8.90343033,24.63402799,77.37518874,77.37518874,31.32175420
1761,Rb2ZrS4,1.9236000000000002,6.84295500,9.89575100,24.42251400,90.00000000,90.00000000,90.00000000
1762,Hg2MoO4,1.9134000000000002,7.49797151,7.49797151,5.05743481,75.01753684,75.01753684,106.83005847
1763,CdBiS2Cl,1.9197000000000002,4.00969200,9.67063500,12.79138900,90.00000000,90.00000000,90.00000000
1764,Rb2U3(IO5)4,1.9092,7.10187700,8.17943191,9.36155611,90.16523310,104.68402230,92.18755395
1765,K2Cu(PS3)3,1.9289999999999998,24.34122500,6.90597400,10.99058614,61.12564788,90.00000000,90.00000000
1766,AgHgSBr,1.9335000000000002,4.67754400,9.80469500,9.96308200,90.00000000,90.00000000,90.00000000
1767,SbO2,1.9220999999999995,4.91324100,5.58158000,11.91387200,90.00000000,90.00000000,90.00000000
1768,LiLa5Ti8O24,1.9348999999999998,7.76910000,7.82106600,7.85238200,90.00000000,90.00000000,90.00000000
1769,SbCl(OF3)2,1.928,5.84145800,7.21132800,7.65241300,90.00000000,90.00000000,90.00000000
1770,V2B(PO4)3,1.9429000000000003,14.15680768,14.15680768,7.62706600,90.00000000,90.00000000,119.99999852
1771,AuN5O14,1.9354,8.37948700,7.95031600,9.62892670,62.53997151,90.00000000,90.00000000
1772,KVF4,1.9296000000000002,7.74828600,7.90528100,12.61779500,90.00000000,90.00000000,90.00000000
1773,Na2CdSnS4,1.9251,6.91518651,6.91518651,6.46666493,63.22118276,63.22118276,98.76584157
1774,La10S14O,1.940599999999999,14.92933413,14.92933413,14.92933413,117.92453808,117.92453808,93.63404172
1775,TlCr3O8,1.9409,5.28262576,5.28234911,15.98533830,92.90621445,92.91547171,63.13083267
1776,K2HgBr2(NO6)2,1.9283000000000001,5.74322500,7.43096900,14.49496200,90.00000000,90.00000000,90.00000000
1777,Ti2Co(PO5)2,1.9118,7.49518399,10.53099159,10.52753658,90.17260993,110.83240092,110.83411282
1778,Mg(SiB6)2,1.9371,6.12518400,8.39675500,11.02933500,90.00000000,90.00000000,90.00000000
1779,BP(IBr)3,1.9337,7.96490300,11.99979300,13.63943600,90.00000000,90.00000000,90.00000000
1780,CsMn4Cl9,1.9349,9.87932961,9.87932961,9.87932961,106.45194509,106.45194509,115.69483574
1781,H8PtCN8,1.9094000000000002,7.79520700,7.18554000,13.90218249,83.90005600,90.00000000,90.00000000
1782,CuMo3Cl7,1.9200000000000004,13.09423100,13.09423100,13.09423100,90.00000000,90.00000000,90.00000000
1783,SiC,1.9207,3.09495865,3.09495865,35.42029000,90.00000000,90.00000000,120.00001385
1784,Na4Ge2Se5,1.9326,12.20872200,13.30411900,14.34935035,87.26122089,90.00000000,90.00000000
1785,RbAuCl4,1.9389,7.11341619,7.11341619,10.33414410,78.81933290,78.81933290,50.65701915
1786,Ba2P7Cl,1.9311000000000003,6.92966900,6.42156500,11.87969171,84.76765860,90.00000000,90.00000000
1787,ZrHg3(SeBr3)2,1.9371999999999998,7.79328300,7.18728500,13.89566734,88.00183514,90.00000000,90.00000000
1788,Tl2CN2,1.9159000000000002,5.40073800,7.08841580,10.05892191,98.01379146,97.73385858,112.00001485
1789,CdBiSe2Br,1.9348,4.17112400,10.20698900,13.42128500,90.00000000,90.00000000,90.00000000
1790,HgCN2,1.9251,7.12657100,5.57972900,7.27617164,66.88525061,90.00000000,90.00000000
1791,Ca3(GaN2)2,1.9148000000000005,6.80863356,6.80863356,5.60355122,89.12647500,89.12647500,76.17086993
1792,KLa5(CCl5)2,1.9383,15.27558000,8.61971100,17.24547462,60.37753719,90.00000000,90.00000000
1793,WCl6,1.9169,7.13311025,7.13311025,7.13310989,55.31884468,55.31884468,55.31884598
1794,Tb2MnNiO6,1.9445000000000001,5.60573300,5.29363300,9.23242097,55.38012008,90.00000000,90.00000000
1795,Cs2UMoO7,1.9349999999999998,12.24627876,12.81334719,18.14487301,90.00000000,90.00000000,90.00000000
1796,Li2Mo(PO4)2,1.9179,4.94598195,4.94598195,7.44784200,90.00000000,90.00000000,119.99999932
1797,PrMnGeO5,1.9292999999999996,5.72688100,5.79754182,7.04705895,106.29111774,99.31602758,107.21377249
1798,KHgC3(SN)3,1.9119000000000002,4.10727800,12.07062700,22.30534881,58.78445234,90.00000000,90.00000000
1799,Rb3Tm2Cu4Br13,1.9139,11.10350600,11.10350600,11.10350600,90.00000000,90.00000000,90.00000000
1800,Fe2TeWC10SeO10,1.912,6.95645700,9.56945294,13.83500081,81.56433493,82.13893375,85.34031981
1801,VAgO3,1.9367,7.29770221,7.29770221,5.60195675,82.89048912,82.89048912,86.78467741
1802,H8PtO6,1.9343,5.59898200,5.65291118,7.40608401,88.37080081,86.07286704,81.53932514
1803,H8PtO6,1.9377,5.61149700,5.72181583,7.35410691,87.23899783,88.42011408,81.50605689
1804,H2WO5,1.9137000000000002,3.95383200,7.51197900,11.97228128,70.82060855,90.00000000,90.00000000
1805,U(HO2)2,1.9309000000000003,5.60037134,5.60037134,7.17559200,90.00000000,90.00000000,136.59438748
1806,Cs2SiSe4,1.9376000000000002,8.68154145,8.68154145,10.35810362,61.91864049,61.91864049,53.61922417
1807,SrMgNiH4,1.9099999999999997,6.92001400,6.92001400,6.92001400,90.00000000,90.00000000,90.00000000
1808,MnH2SeO5,1.9202,5.52891719,11.05880684,8.04749828,106.13852532,73.89783442,80.37119701
1809,Ti2SCl12,1.9333,14.42191756,14.42191756,14.42191762,103.99954777,103.99954777,103.99954668
1810,La4(GeS4)3,1.9238999999999997,11.64352156,11.64352156,11.64352216,114.70262374,114.70262374,114.70261738
1811,Os2Pt(CO)9,1.915,10.48763200,15.72458700,17.96373100,90.00000000,90.00000000,90.00000000
1812,Fe3C9S2O9,1.9239,6.88624500,9.21092479,13.18122565,93.98866674,94.12941676,111.17747912
1813,K2PtS15,1.9164999999999999,9.27989103,9.27989103,12.83858695,89.44388363,89.44388363,65.81122620
1814,Re(TeBr2)2,1.9379,11.05656104,11.05656104,11.05656104,116.12580652,116.12580652,96.85244345
1815,Ba8CaY2U4O24,1.9303,10.76834837,10.76834837,12.40363700,90.00000000,90.00000000,109.76859682
1816,RbHgC3(SN)3,1.9419,4.24464600,11.34841700,11.63861884,64.38264167,90.00000000,90.00000000