,pretty_formula,bandgap,cell_length_a,cell_lentgh_b,cell_lentgh_c,cell_angle_alpha,cell_angle_beta,cell_angle_gamma
5307,Ga2Ge4Pb3O14,2.1697999999999995,8.54163843,8.54163843,5.01101600,90.00000000,90.00000000,120.00000337
5308,CsGeI3,2.1807999999999996,6.25770611,6.25770611,5.98862791,88.57680362,88.57680362,92.31435517
5309,Rb6U2W4O21,2.1745,10.35858100,13.43510750,19.17744386,97.99561512,96.51946683,104.18682481
5310,MoPNCl6O,2.1536,15.13850100,12.07517800,13.93672750,60.88460711,90.00000000,90.00000000
5311,ReTe5O6F25,2.1627,18.68257200,9.18399100,14.30592308,72.54465530,90.00000000,90.00000000
5312,As4Pb8Cl6O11,2.1774999999999998,11.44672200,6.77606700,35.19397392,85.97714308,90.00000000,90.00000000
5313,KFe(SeO3)2,2.1843,5.53441700,8.26908100,13.18260700,90.00000000,90.00000000,90.00000000
5314,Fe3C9(SO5)2,2.1731,9.10901800,9.58965158,10.41716568,97.08900775,91.27991551,116.94954004
5315,RbGeSbO5,2.1776999999999997,6.81386000,10.94035500,13.61865600,90.00000000,90.00000000,90.00000000
5316,PNCl2,2.1645,13.56074500,13.56074500,7.72382400,90.00000000,90.00000000,90.00000000
5317,AsXe2O4F9,2.1828,5.50219200,10.69349600,19.07576289,78.69384394,90.00000000,90.00000000
5318,Ba9(NdS6)2,2.1666999999999996,7.75863525,7.75863525,14.75783810,84.96903123,84.96903123,119.97468323
5319,Ho14(PbS8)3,2.1640000000000006,7.27092200,7.27187817,18.36124068,97.47692658,97.49958822,109.90716777
5320,BiTeO4,2.1794000000000002,7.46432100,7.68797721,8.28916851,75.06079988,67.91490711,61.44323167
5321,KNbCl6,2.1642,10.34924600,7.33926000,7.36500921,89.96713179,90.00000000,90.00000000
5322,Gd8Zr7O26,2.1888,12.80998492,12.80998492,14.62561772,31.04608267,31.04608267,34.57584985
5323,Mg4Sb2O9,2.1564000000000005,5.24593000,5.63500930,11.86322887,98.22880352,102.75201943,90.53895343
5324,Na8Al11Si13(AgO16)3,2.167,12.06695100,12.39927361,12.77223808,90.15388435,91.48511853,90.04370446
5325,Ba4La2Ti3Nb2O18,2.1846,14.45039127,14.45039127,14.45039157,22.85870551,22.85870551,22.85870191
5326,H16PtC4(NCl3)2,2.1704,8.06498187,8.06498187,7.37880408,64.11546826,64.11546826,75.02301744
5327,Li5SiN3,2.1599,8.17076100,8.19531751,20.64413058,97.61860635,97.28310445,109.31994694
5328,La2NiO4,2.176099999999999,7.07748515,7.07748515,7.34320200,90.00000000,90.00000000,147.46324480
5329,Na3V2P2O10F,2.1555999999999997,6.48215294,6.47986597,13.99308230,117.36109747,117.40033983,89.92680799
5330,Ca14La6Mg3Ti17O60,2.1726,5.48077900,5.54818228,38.92920874,89.90334671,89.97609954,89.91380095
5331,Li3Cr13Ni3(SO4)24,2.1679000000000004,8.29858200,8.83909046,27.72843252,84.37154743,81.60309631,62.05935088
5332,Ca2Fe3Sb(PO4)6,2.1864,8.91176228,8.91176228,8.91176215,58.22929467,58.22929467,58.22929728
5333,Na4P2H4CO9,2.1538,8.53862900,8.53862900,6.50524900,90.00000000,90.00000000,90.00000000
5334,YSeF,2.1547000000000005,4.12969200,10.02729200,13.18603866,75.04470081,90.00000000,90.00000000
5335,BaSn2(HO2)2,2.1820999999999997,5.89411700,7.30907700,7.66501825,71.87118746,90.00000000,90.00000000
5336,Cu2H6C3N4O,2.1839999999999997,8.37702800,7.87102600,11.81693974,86.31522910,90.00000000,90.00000000
5337,SnHC2O3,2.1837,7.63613161,7.63613161,8.46291473,63.02050577,63.02050577,62.83430207
5338,CaHgO2,2.1636,6.63669893,6.63669893,6.63669917,31.84135501,31.84135501,31.84135102
5339,GeW2C10(BrO5)2,2.1698,13.31912900,9.66663100,17.87001295,59.63136897,90.00000000,90.00000000
5340,K2Co2(MoO4)3,2.1587,8.38793800,14.23245300,20.11243565,74.29545482,90.00000000,90.00000000
5341,LiFe3P4O15,2.1789,10.81182200,6.44177100,17.45581898,88.79990181,90.00000000,90.00000000
5342,Ta2MnO6,2.1583,18.16465800,18.16465800,5.19009371,89.75076932,89.75076932,149.25367918
5343,Rb10NaAl11Si13O48,2.1539,12.06775200,12.24154962,12.65427480,90.56706033,90.15788844,90.16477495
5344,Nb10Pb14O39,2.1844,9.50579700,12.92945500,17.20716890,80.25518104,90.00000000,90.00000000
5345,H2S2O7,2.184,10.25415928,10.25415928,13.04641305,77.31415889,77.31415889,101.01069331
5346,CsErZnSe3,2.1566,8.40679012,8.40679012,10.94724500,90.00000000,90.00000000,151.34773728
5347,Rb2FeH2Cl5O,2.1756,7.20839400,10.01856900,14.05443900,90.00000000,90.00000000,90.00000000
5348,Ba2La6Mg4Ti3WO24,2.1693,5.91351567,5.91351567,38.62186535,83.77299819,83.77299819,56.61351246
5349,Cr3H24C8(NO5)2,2.1742,8.66782900,11.61453800,20.56256284,75.95731139,90.00000000,90.00000000
5350,FeP3(H2O3)3,2.1607,7.61364924,7.61364924,9.88071456,75.68117731,75.68117731,50.30726399
5351,Rb3TmO3,2.1718,7.36131100,7.96150300,11.71309086,85.75112071,90.00000000,90.00000000
5352,Li3FeSiO5,2.1768,5.12386500,5.74877849,6.27260416,76.23658448,75.97100600,73.49318415
5353,Li3V2OF7,2.1597000000000004,5.93323852,5.90664824,10.42439021,75.78794714,88.09778237,118.16050784
5354,LiVPO4,2.1749000000000005,4.95878410,9.90824100,7.21652866,90.00007495,90.47517999,89.99979182
5355,LiMnF4,2.1845,7.43082100,5.14434400,7.65085884,83.84281374,90.00000000,90.00000000
5356,LiMnF4,2.1745,9.83259800,4.70962400,7.77208943,55.10349552,90.00000000,90.00000000
5357,LiVF4,2.1698,3.13065300,4.94162300,5.44357855,67.42547600,90.00000000,90.00000000
5358,LiVSiO4,2.1744999999999997,4.90699200,9.15840900,6.31108200,89.99916864,89.99993774,89.99998207
5359,Li2NiOF2,2.1820999999999997,2.93098900,2.93098900,12.45607800,90.00000000,90.00000000,90.00000000
5360,Rb6Ti2O7,2.1782,9.93015655,9.93015655,9.96172300,90.00000000,90.00000000,120.00000370
5361,LiV(CO3)2,2.1624,4.62562100,12.36724167,7.22449454,101.39673173,90.00048472,90.00010543
5362,Li2VCrP2(HO5)2,2.1699999999999995,5.42692370,7.39666929,5.16594288,109.02707665,97.88693187,106.64675473
5363,Ta2MnO6,2.1755000000000004,4.83343800,10.55222817,9.66739300,62.74010879,90.00007112,89.99996839
5364,Li2VF6,2.1707,4.68444500,4.68444500,9.15236900,90.00000000,90.00000000,90.00000000
5365,Li2VCr(P2O7)2,2.1874,4.87931773,10.84721681,10.80258903,99.09234577,101.78686070,102.06207997
5366,Cs3HoO3,2.1913,7.61533411,7.61533411,7.61881883,84.03041169,84.03041169,115.87092705
5367,Li4MnF7,2.1900000000000004,7.69026885,7.69026885,5.41395349,78.97977524,78.97977524,71.29088331
5368,AlInO3,2.1689999999999996,3.28382040,3.28382040,12.02348400,90.00000000,90.00000000,120.00000800
5369,Ba(LaI4)2,2.1809000000000003,8.86451801,8.86451801,6.38226290,82.12341678,82.12341678,110.99572224
5370,LiFe7(OF3)3,2.1882,5.44956817,5.72286725,9.55733471,85.78955684,71.93454376,117.61620674
5371,LiMnF4,2.1876,4.84427800,5.95635700,10.50041909,89.86058024,90.00000000,90.00000000
5372,Na4Ti3O8,2.1729,6.11380306,6.11380306,6.54064166,61.70783070,61.70783070,60.49963370
5373,Cr(PO3)2,2.1596,5.01532936,6.91409296,13.52888229,90.61755972,97.09160655,103.97898346
5374,La2S2O,2.1721000000000004,4.06835800,7.14076300,16.18558300,90.00000000,90.00000000,90.00000000
5375,Li2NiSnO4,2.1677999999999997,6.11590360,8.10117367,8.10111728,80.40981533,111.87260229,68.13186109
5376,Li4Ti3O8,2.1569000000000003,5.90504791,5.90504791,6.00757999,59.60171710,59.60171710,60.60638802
5377,Sr2Ti6N2O11,2.1566,7.85204152,7.85204152,9.31133608,82.48155041,82.48155041,28.26261287
5378,Li2AlVO4,2.1706,5.38816287,10.77651946,6.42432500,89.99992596,90.00018355,88.69121309
5379,Li2AlVO4,2.1915,6.36160900,5.58265400,4.98139400,90.00024968,89.99992947,89.99964540
5380,CaLaI5,2.1812000000000005,8.03820286,8.03820286,19.19137200,90.00000000,90.00000000,147.62793947
5381,ZnCrO4,2.1593,5.06760030,5.06760030,6.39011900,90.00000000,90.00000000,113.04327441
5382,Y2HgO4,2.1903,7.10213475,7.10213475,10.16072215,58.80340173,58.80340173,29.78023639
5383,TePHO5,2.1732,5.48601991,7.99246676,5.42154564,110.86013238,96.34663420,106.49799624
5384,Li4TiS4,2.1634,6.69784109,6.69784109,7.82441100,90.00000000,90.00000000,92.52625266
5385,Rb3ErO3,2.1535,7.36136100,7.97795400,11.72841051,85.88098367,90.00000000,90.00000000
5386,LiIO4,2.1721,8.65958900,5.34373900,9.03520510,72.12228344,90.00000000,90.00000000
5387,Bi3O4F,2.1545,5.85408200,5.76543800,9.08894986,80.93159899,90.00000000,90.00000000
5388,Li2VP2O7,2.1738000000000004,13.71476300,5.16057900,9.37147524,58.28115352,90.00000000,90.00000000
5389,Li2Cr3Si3O10,2.1845999999999997,8.56814678,8.56814678,10.36357738,86.88047993,86.88047993,33.11509036
5390,Li5Mn2Fe3(PO4)6,2.1702000000000004,8.54833800,8.62437986,8.63285339,61.71923386,62.05098324,61.97367031
5391,Li6Ni3P6WO24,2.1898999999999997,8.69906300,8.75355709,8.75449104,60.48115726,60.29934806,60.52766940
5392,LiV(PO3)4,2.1908000000000003,8.75420900,7.01831600,7.40438013,85.73515166,90.00000000,90.00000000
5393,Li3Sn2(PO4)3,2.1553999999999998,9.12966300,8.94112300,15.59645757,57.32860377,90.00000000,90.00000000
5394,Na4H2RuN6O13,2.1774,7.65393552,7.65393552,12.29190347,87.48966146,87.48966146,116.96806293
5395,LiVP2O7,2.1773,10.23910300,7.09458000,8.09718565,68.30917008,90.00000000,90.00000000
5396,LiVP2O7,2.167,8.48319000,7.04215200,9.27149060,67.61163265,90.00000000,90.00000000
5397,LiFeP2O7,2.1893,8.06464900,4.94889600,14.20387287,79.33603324,90.00000000,90.00000000
5398,LiFe(PO3)4,2.1852,7.42934102,7.42934102,18.11682600,90.00000000,90.00000000,101.71716795
5399,Cr2O5F2,2.1862000000000004,8.27050000,8.27050000,9.67630900,90.00000000,90.00000000,90.00000000
5400,Sb2OF8,2.1683,5.54724000,9.24858100,15.62123821,75.71559182,90.00000000,90.00000000
5401,LiFeSiO4,2.1661,10.43840000,5.78300500,10.36396920,89.27784405,90.00000000,90.00000000
5402,Li2Cr2P2O7F2,2.1722000000000006,6.91238600,10.59377900,10.85367700,90.00000000,90.00000000,90.00000000
5403,Fe2C2O7,2.1609,8.53001505,8.53001505,8.38375100,89.41450438,89.41450438,60.23027946
5404,V3OF11,2.1743,5.25948500,5.46178275,14.73845439,100.27553012,89.99922250,90.20437260
5405,Li2MnO2F,2.1914000000000002,5.28036918,8.73647660,6.35669041,108.51560610,114.54779450,72.50011655
5406,V3OF11,2.1732,5.26240100,5.45794300,14.89432485,79.78131110,90.00000000,90.00000000
5407,Li2VCr(P2O7)2,2.1798,7.02177400,8.22326490,14.03941984,90.05547394,99.56848090,90.07942281
5408,Li4VF8,2.1665,5.66736600,9.45151400,9.47623100,90.00000000,90.00000000,90.00000000
5409,Li2Mn4OF8,2.1717999999999997,5.46300000,9.45643900,14.59456800,90.00000000,90.00000000,90.00000000
5410,Li4Mn3OF8,2.1701,5.24942900,5.71474600,24.52011600,90.00000000,90.00000000,90.00000000
5411,Li2Mn2C2O7,2.1548,6.85324900,9.62748600,10.33578883,64.58250910,90.00000000,90.00000000
5412,Li2VCr(P2O7)2,2.1704999999999997,9.55738348,9.55914187,7.15166997,79.27265645,79.29855681,118.75547659
5413,Li2VF5,2.1788,6.95050700,7.48201600,7.81795248,89.40223473,90.00000000,90.00000000
5414,Li2VOF4,2.1913,5.09520517,5.78585553,7.06014385,71.10063077,90.02343502,63.89669853
5415,Bi3O4F,2.1807,8.91252917,8.91252917,10.03086913,66.69514077,66.69514077,22.91047720
5416,Li3CoOF3,2.1603000000000003,5.13996163,5.13996163,10.20467382,79.36927488,79.36927488,33.77315597
5417,Li5Ni2O2F5,2.1884,2.92716893,14.60959648,5.85424383,95.74249986,90.00087890,84.25044456
5418,LiV(SiO3)2,2.1657999999999995,5.35778900,8.78766100,18.28882800,90.00000000,90.00000000,90.00000000
5419,LiV2O5F,2.1571,4.98633000,5.63665900,14.06815000,90.00000000,90.00000000,90.00000000
5420,Li2Mn5Si5O16,2.1703,5.13969500,7.06640972,10.49473838,89.16678776,89.86797882,89.80789234
5421,V2Bi4O11,2.1611,8.11459037,8.11459037,11.10758401,89.91474800,89.91474800,40.98818869
5422,LiFeCO3F2,2.1772,5.93161200,6.46656500,8.56993500,90.00000000,90.00000000,90.00000000
5423,FeBP2H5NO9,2.159,8.39051600,9.47341100,9.80092077,77.74485860,90.00000000,90.00000000
5424,Li7Ti7Nb5O30,2.1805000000000003,5.16642809,5.16642809,23.82624200,90.00000000,90.00000000,120.00000117
5425,LiVSi3O8,2.1676,12.80143300,7.15354600,7.71339339,62.02595759,90.00000000,90.00000000
5426,LiMnBO3,2.1553,3.24418700,14.49657849,14.50128228,119.95098944,90.05318950,90.05420670
5427,Li2FePCO7,2.1601,5.07988100,10.03253612,11.16778702,106.09222172,88.42501498,96.35065400
5428,LiCrB2O5,2.1852000000000005,10.67555500,5.40538600,12.03099854,79.53632539,90.00000000,90.00000000
5429,Li3VBPO7,2.1832999999999996,6.41266200,5.05812500,8.48537535,84.41773849,90.00000000,90.00000000
5430,Li2Bi5B3O13,2.1609999999999996,3.73047800,10.75979900,16.39682250,76.20496099,90.00000000,90.00000000
5431,Na2VPCO7,2.1700999999999997,8.40660403,8.40740703,10.25369813,72.23827326,107.76061391,78.68630835
5432,Li6Ti2S6O,2.1790000000000003,9.03587900,11.53966000,11.78381662,68.62732107,90.00000000,90.00000000
5433,Li4Cr3FeO8,2.174,5.14616300,5.95423412,10.72852387,97.96469420,103.81857779,106.81917977
5434,Mn4P2O9,2.1897,11.70624100,6.77522000,9.65328072,76.19244220,90.00000000,90.00000000
5435,Na2VAsCO7,2.1651000000000002,6.76096600,10.73543340,10.51088204,118.91279631,90.00067938,89.99996930
5436,Na2SiBSbO7,2.1619,6.63995100,5.44211200,9.38537847,86.87609579,90.00000000,90.00000000
5437,Li5Fe5(PO4)6,2.1622000000000003,8.46160100,8.58256555,8.58730763,61.74094754,62.29440563,62.20968912
5438,Sr3LaI9,2.1769000000000003,7.80233000,8.40496000,33.10699667,88.20771008,90.00000000,90.00000000
5439,SrLaI5,2.1565000000000003,11.44937656,11.44937656,7.98041286,88.48330626,88.48330626,147.47875067
5440,Cs3GaO3,2.1902,9.33009500,9.33009500,9.33009500,90.00000000,90.00000000,90.00000000
5441,Rb3LuO3,2.1896,7.30910300,7.91829400,11.65734787,85.57376166,90.00000000,90.00000000
5442,Li4V2SiGeO10,2.1885999999999997,4.57354401,9.21234414,9.21214897,89.99500396,90.00233872,90.00602212
5443,LiCa2Ta3O10,2.189,14.18312793,14.18312793,14.18312793,164.03445316,164.03445316,22.65297058
5444,Li2Cr3WO8,2.1844999999999994,5.96301347,5.96301347,9.63673500,90.00000000,90.00000000,119.99999417
5445,Li4NiSn3(PO4)4,2.1723000000000003,6.74203600,4.84535000,10.98249604,88.89482291,90.00000000,90.00000000
5446,LiVPO5,2.1592,9.12418200,5.16209400,17.74307757,88.65788700,90.00000000,90.00000000
5447,LiFe2OF5,2.1807,4.57237900,8.67308464,8.69536020,60.17248146,89.21012327,88.64656935
5448,LiCr(SO4)2,2.1585,8.32109300,8.33027210,8.90489438,90.18649432,117.65107965,119.87063629
5449,Ta2H15N6Cl7,2.191,11.58973578,11.58973578,7.93989600,90.00000000,90.00000000,127.85676906
5450,LiVF4,2.171,4.59372800,4.95880800,11.68201000,90.00000000,90.00000000,90.00000000
5451,LiMnF5,2.1629000000000005,9.02964700,5.27488500,9.19939345,58.55979019,90.00000000,90.00000000
5452,Li4Cr7(PO4)6,2.1869000000000005,9.13495953,9.13495953,6.48547754,81.11467668,81.11467668,99.96602991
5453,Li2VF5,2.1904,5.51411000,7.49037200,9.65349700,90.00000000,90.00000000,90.00000000
5454,Li3SbH18S4O9,2.1609,11.53979300,11.53979300,11.53979300,90.00000000,90.00000000,90.00000000
5455,Na6Mn3(PO4)4,2.1610000000000005,10.63407167,10.63407167,10.93660540,89.63905082,89.63905082,37.06205426
5456,B5SbO10,2.1823,15.05680300,7.28878400,7.29863296,88.16448036,90.00000000,90.00000000
5457,Li3Fe(BO3)2,2.1904000000000003,7.80786000,5.92590600,10.96933540,62.84151498,90.00000000,90.00000000
5458,V3OF11,2.1826999999999996,5.26515400,5.46497301,14.83636829,100.25778576,90.01131907,90.00289363
5459,V3OF11,2.1561,5.25740300,5.46109152,14.75177943,100.28260597,90.02580135,90.22873924
5460,Cs3DyO3,2.1887,7.63432403,7.63432403,7.66759316,84.08284292,84.08284292,116.37584323
5461,Hf2N2O,2.1572000000000005,8.70553800,8.72499946,8.72867293,109.37717680,109.35040310,109.39098639
5462,EuB4O7,2.1852,4.27874900,4.47236000,10.84245200,90.00000000,90.00000000,90.00000000
5463,Dy2S2O,2.1700999999999997,3.81261800,6.74807400,15.63546600,90.00000000,90.00000000,90.00000000
5464,Na6ZnS4,2.1583,8.98132782,8.98132782,6.94182900,90.00000000,90.00000000,119.99999867
5465,ZnO2,2.1691,4.95732700,4.95732700,4.95732700,90.00000000,90.00000000,90.00000000
5466,GaBi25O39,2.1910000000000007,8.94251200,8.94511526,14.56740001,90.19178182,90.08603770,109.55918294
5467,CrPO4,2.1648,11.17098500,5.57789800,9.84195716,88.21101603,90.00000000,90.00000000
5468,LiVOF4,2.1574,5.41882944,5.41882944,10.24564500,90.00000000,90.00000000,140.95590219
5469,LiFe2OF5,2.1569,4.56313800,8.68162937,8.70071489,60.17225179,89.75177084,89.54697500
5470,DyI3,2.1797,11.59384449,11.59384449,3.99265700,90.00000000,90.00000000,120.00000281
5471,LuI3,2.1816,11.17712372,11.17712372,3.92330200,90.00000000,90.00000000,119.99999833
5472,CuH6BrN2,2.1545,7.24993794,7.24993794,5.80565712,78.93965668,78.93965668,125.17316693
5473,NaCoO2,2.1646,2.91373343,2.91373343,10.55983800,90.00000000,90.00000000,119.99998695
5474,K4UO5,2.1910000000000003,6.55850000,6.55987127,9.83636202,101.65802948,108.82740203,102.18484069
5475,Rb2HgF4,2.1853,7.71568402,7.71568402,7.71568402,144.64372712,144.64372712,50.86577108
5476,CsTmS2,2.1913,8.37509853,8.37509853,8.37509772,28.01833744,28.01833744,28.01833610
5477,V2Se2O11,2.1812,8.35097638,8.35097638,9.75653507,68.73235392,68.73235392,39.83984840
5478,K3SbS4,2.1851,7.94179085,7.94179085,7.82567000,90.00000000,90.00000000,93.33153922
5479,SnBrF,2.18,4.10625700,4.10625700,7.89828600,90.00000000,90.00000000,90.00000000
5480,B2(CN2)3,2.181799999999999,9.96848505,9.96848505,6.96416166,81.24858646,81.24858646,25.25115148
5481,Cs2NaAlH6,2.1846,6.09944511,6.09944511,6.09944511,60.00000000,60.00000000,60.00000000
5482,LiS4,2.1584999999999996,12.21087100,12.84885850,12.92943907,84.10426525,87.71993767,88.25927070
5483,AlP,2.1635,7.74850000,7.74850000,12.13431500,90.00000000,90.00000000,90.00000000
5484,MgAgF3,2.1905,5.62783170,5.62783170,5.62783139,59.84229845,59.84229845,59.84230376
5485,MgCo2(PO4)2,2.1641,8.79836301,8.79836301,16.47690147,60.88531828,60.88531828,33.58185604
5486,PWO4,2.1567,9.79049194,9.79049194,16.60766784,60.25239075,60.25239075,31.09189362
5487,CaP3W3O13,2.1755000000000004,6.72175400,7.86348700,10.75517696,80.56493002,90.00000000,90.00000000
5488,CaNiF6,2.1535,5.65941337,5.65941337,5.65941387,58.19904903,58.19904903,58.19905093
5489,Ca3Si4(SnO7)2,2.1780999999999997,9.85382702,9.85382702,10.71663359,57.30333791,57.30333791,46.29670870
5490,SnP2O7,2.1620999999999997,6.47333200,6.53606567,7.03175384,88.39109157,114.00536101,95.11878181
5491,P2WO7,2.1610000000000005,6.50312500,6.54442655,7.14616692,87.32957709,65.71585396,83.88332716
5492,Ca2SbWO6,2.1869000000000005,5.65817700,5.94629319,6.09835116,72.95355081,66.05933652,64.61601022
5493,Zn2SnWO6,2.1632,5.66445400,5.77026896,5.77565770,89.50050731,114.13578115,114.22032437
5494,ZnSn3(P2O7)2,2.1780000000000004,8.26691500,8.13510600,10.04028329,76.23165587,90.00000000,90.00000000
5495,YAg(WO4)2,2.1667,6.00010400,5.24286200,11.36274332,65.46615365,90.00000000,90.00000000
5496,CaTi(GeO3)2,2.1633,8.69475100,5.41733800,12.18759108,77.25828107,90.00000000,90.00000000
5497,ZnNi(GeO3)2,2.1605999999999996,9.15973100,5.45729200,9.70314670,77.71446246,90.00000000,90.00000000
5498,ZnFe3(P2O7)2,2.1902,7.76016800,7.26040400,9.59524709,69.33615397,90.00000000,90.00000000
5499,LaMgFeSnO6,2.1909,5.64087700,5.44089200,9.57010693,55.98430522,90.00000000,90.00000000
5500,NaAlSe2,2.2061,6.31491444,6.31491444,6.31491444,104.79009408,104.79009408,119.30396512
5501,CaSiN2,2.1962,6.15727433,6.15727433,6.84259500,90.00000000,90.00000000,127.53651426
5502,Li7SbN4,2.2181,9.93571400,9.93571400,9.93571400,90.00000000,90.00000000,90.00000000
5503,CsCa2Ta3O10,2.2298999999999998,3.95063400,3.95063400,15.51355200,90.00000000,90.00000000,90.00000000
5504,CsKMg14O15,2.2026999999999997,4.20886800,8.53628200,9.98953300,90.00000000,90.00000000,90.00000000
5505,CaMg14CoO16,2.2278000000000002,4.32004800,8.57241500,8.62382000,90.00000000,90.00000000,90.00000000
5506,Mg30AlBO32,2.2274000000000003,8.51766000,8.51766000,8.51546500,90.00000000,90.00000000,90.00000000
5507,Mg30MnCoO32,2.2139,8.52366900,8.52366900,8.54624400,90.00000000,90.00000000,90.00000000
5508,Mg30BSbO32,2.2058999999999997,8.59836900,8.59836900,8.59639200,90.00000000,90.00000000,90.00000000
5509,KRbMg30O31,2.2298,8.74022500,8.74022500,8.59346600,90.00000000,90.00000000,90.00000000
5510,CsGeBr3,2.2258,5.70378777,5.70378777,5.70378825,89.07462265,89.07462265,89.07462006
5511,Ba2ZrTiO6,2.2161,5.86433918,5.86433918,5.86433918,60.00000000,60.00000000,60.00000000
5512,CsRbMg14O15,2.2219000000000007,4.20010100,8.54950400,10.21795100,90.00000000,90.00000000,90.00000000