,pretty_formula,bandgap,cell_length_a,cell_lentgh_b,cell_lentgh_c,cell_angle_alpha,cell_angle_beta,cell_angle_gamma
9438,Li2CoGe3O8,2.4709,8.30044800,8.30044800,8.30044800,90.00000000,90.00000000,90.00000000
9439,Li6Ti2O7,2.4868,10.08878400,10.08878400,2.96324100,90.00000000,90.00000000,90.00000000
9440,GdTa3O9,2.4874,6.52489500,7.66748000,12.66065700,90.00000000,90.00000000,90.00000000
9441,LiSbWO6,2.4585000000000004,7.33310900,7.33310900,10.32179300,90.00000000,90.00000000,90.00000000
9442,Li6V(BO3)3,2.4706,16.29471400,6.55286300,7.04817735,75.27270965,90.00000000,90.00000000
9443,Li2Cr2O7,2.479,6.47582100,7.08585797,12.63282903,94.81399401,96.58857499,90.91572249
9444,Gd2W2O9,2.4647,6.81499400,7.19472492,7.43247653,69.97555652,84.92879622,83.18181817
9445,Ba3(BrO)2,2.4718,10.69661400,12.77368100,14.42148675,67.94663373,90.00000000,90.00000000
9446,Li2V3O7,2.4621,10.58557537,10.58557537,9.52925400,90.00000000,90.00000000,119.99999605
9447,Ba5La3I19,2.4874,12.04978800,15.31833445,16.01435274,88.66979577,104.86799910,96.86788855
9448,Li2Cr2O7,2.4779999999999998,6.56265400,6.76408070,7.10903954,112.13970521,89.78978991,96.79748350
9449,LaSCl,2.4564999999999997,6.98150600,7.07965700,42.19815000,90.00000000,90.00000000,90.00000000
9450,Li2Mn2Si2O7,2.4627,13.42035600,5.54640000,10.18007087,57.10911196,90.00000000,90.00000000
9451,Ba3(LaI6)2,2.4533000000000005,13.92024000,15.20030200,15.54126049,89.45872715,90.00000000,90.00000000
9452,Li2CrO4,2.4691,9.79513300,7.74498800,9.76891487,86.88769052,90.00000000,90.00000000
9453,Li3Fe(PO4)2,2.4696000000000007,4.73610061,10.23486423,5.93834200,90.00003605,90.00000957,90.47808441
9454,LiVSiO4,2.4649,10.89236493,10.89236493,12.19847500,90.00000000,90.00000000,120.00000562
9455,Ba2YI7,2.4686000000000003,8.74310900,14.95875400,16.30213000,90.00000000,90.00000000,90.00000000
9456,LiCrP2O7,2.4574000000000003,5.27890477,5.27892214,9.01634064,82.33334216,97.66563237,75.87834779
9457,Li3VF6,2.4775,6.06769429,6.06769429,6.06769464,91.38367038,91.38367038,91.38367645
9458,Li3Nb3P8O29,2.4838,10.03788608,10.03788608,14.08451811,89.79939054,89.79939054,60.00398047
9459,Ge2N2O,2.4587999999999997,5.67128504,5.67128504,5.97426736,62.21404760,62.21404760,56.99438230
9460,LiV3P3(HO6)2,2.4616,8.67155760,8.67155760,6.68507238,72.71610646,72.71610646,91.96248279
9461,In2WO6,2.4632000000000005,5.46052600,10.38077300,16.05974600,90.00000000,90.00000000,90.00000000
9462,Li5InO4,2.4721,9.42133900,9.50534900,9.61009400,90.00000000,90.00000000,90.00000000
9463,TaNbO5,2.487,5.70446800,14.38985300,14.44523336,59.81323241,90.00000000,90.00000000
9464,LiFeOF2,2.4666,6.65241620,6.65241620,5.28015382,83.50499619,83.50499619,84.74195089
9465,Li3Fe4O3F5,2.4718,6.12085064,6.00198772,6.16259513,60.47051655,88.26065041,118.65132419
9466,NbBO4,2.4676,5.26049758,5.26049758,5.26049758,106.05482738,106.05482738,116.54405774
9467,PrBS3,2.4637000000000002,6.03267400,7.67603200,8.99600100,90.00000000,90.00000000,90.00000000
9468,K2Na(H2N)3,2.4531,7.03338000,7.03338000,12.40927300,90.00000000,90.00000000,90.00000000
9469,Ca2SnS4,2.4534,6.18460896,6.18460896,9.73688100,90.00000000,90.00000000,110.59572337
9470,LiNi4(PO4)3,2.4808000000000003,8.51123724,8.51123724,6.42161334,72.75747298,72.75747298,93.95658068
9471,Li4VF6,2.4727,5.49931113,5.49931113,10.70530831,82.61215698,82.61215698,57.58456007
9472,Li4TiS4,2.4743,6.89287481,6.89287481,6.89287481,129.60651053,129.60651053,74.03661051
9473,RbBaTaS4,2.4774000000000003,7.11535300,9.46771400,12.64334600,90.00000000,90.00000000,90.00000000
9474,Ba4Na(BN2)3,2.4681999999999995,6.92069306,6.92069306,6.92069306,109.47122063,109.47122063,109.47122063
9475,Hg2H6CN3Cl5,2.452,8.07762432,8.07762432,18.54015100,90.00000000,90.00000000,150.74101402
9476,Ba4Nd4Zn3PtO15,2.4838999999999998,11.88159962,11.88159962,6.87062400,90.00000000,90.00000000,119.99999789
9477,B2(CN2)3,2.4822,9.14363887,9.14363887,9.14363875,54.64308331,54.64308331,54.64307696
9478,InSnCl3,2.4701999999999997,5.66954806,5.66954806,5.77651343,88.63860675,88.63860675,88.79573021
9479,Mn2Zn(PO4)2,2.4800999999999997,8.64910266,8.64910266,17.44914105,63.78635333,63.78635333,33.52587268
9480,TiO2,2.4625,5.89469779,5.89469779,5.89469814,61.42898102,61.42898102,61.42898117
9481,MgCr2O4,2.4536,2.93722900,8.94315700,10.52144800,90.00000000,90.00000000,90.00000000
9482,MgNiO2,2.4878,2.88720800,8.14250264,8.41321032,83.35366102,80.18009772,80.04220202
9483,SnF4,2.4568000000000003,5.04480806,5.04577643,6.54268915,115.24182147,112.38579526,90.08397519
9484,Mg2Ti3O8,2.4562999999999997,6.03937922,6.03937922,4.97367093,71.16114056,71.16114056,59.43342823
9485,Mg(FeO2)2,2.452699999999999,2.87746000,8.75753000,10.16892700,90.00000000,90.00000000,90.00000000
9486,YBi(WO4)2,2.4616,5.36029300,5.59639606,6.36814200,115.95492069,108.47310392,90.07706128
9487,ZnSbAsO5,2.4898,7.51125700,7.82994300,8.75980700,90.00000000,90.00000000,90.00000000
9488,Ta2Zn2SnO8,2.4845,10.92061938,10.92061938,5.43407088,88.45722218,88.45722218,31.91045893
9489,SrMgV(PO4)2,2.4525999999999994,5.56195551,7.00550125,9.48439316,111.26062436,101.13369267,98.01004514
9490,Nb2Zn2CoO8,2.4837999999999996,10.13895758,10.13895758,5.28515240,89.71335080,89.71335080,34.19572671
9491,TaZn2CrO6,2.4606,7.67265400,5.23859100,5.32082060,89.20701356,90.00000000,90.00000000
9492,CaNiO2,2.4619000000000004,3.11792700,8.10408158,8.35497052,82.61363222,89.23251263,88.30605218
9493,Ca3Co3(AsO4)4,2.467,5.16980000,9.24605000,17.27190107,62.99223712,90.00000000,90.00000000
9494,MgTi2(PO5)2,2.4653,10.01781129,8.99840145,6.72734593,77.66118688,61.34127081,40.99754231
9495,CaSn2(PO5)2,2.4752,10.27263542,9.17235494,7.08070152,77.21641950,60.54705377,42.23652673
9496,MgBiSbO5,2.4696000000000002,5.46289459,8.01594800,12.05445900,90.00000000,90.00000000,107.05774551
9497,CaV3(P2O7)2,2.4762000000000004,7.86299200,7.60853500,9.61836881,68.20352735,90.00000000,90.00000000
9498,CaSn2(PO4)2,2.4846999999999997,9.44528297,9.44528297,19.30844189,63.97422643,63.97422643,32.45277561
9499,Ba2YV2F11,2.4634,7.95439599,7.95439599,13.80849600,90.00000000,90.00000000,119.99999994
9500,ScN,2.5166000000000004,3.46171903,3.46171903,3.46171903,60.00000000,60.00000000,60.00000000
9501,Ca5(SiN3)2,2.500400000000001,5.92798120,5.92798120,12.05918089,85.18162913,85.18162913,116.09259956
9502,Mg2NbN3,2.5162999999999998,5.91785240,5.91785240,5.30461700,90.00000000,90.00000000,119.00586817
9503,BaGeN2,2.5305,5.59308400,11.22342400,16.66279800,90.00000000,90.00000000,90.00000000
9504,KMg14BO15,2.5028999999999995,4.47281800,8.20411200,8.83933300,90.00000000,90.00000000,90.00000000
9505,KMg14BO16,2.5162000000000004,4.44916100,8.21580500,8.89194000,90.00000000,90.00000000,90.00000000
9506,Mg30ZnCoO32,2.5213,8.51558700,8.51558700,8.53578800,90.00000000,90.00000000,90.00000000
9507,CaMg30MnO32,2.5039000000000007,8.57527200,8.57527200,8.58306100,90.00000000,90.00000000,90.00000000
9508,RbMg30SbO32,2.4976000000000003,8.68207300,8.68207300,8.67733000,90.00000000,90.00000000,90.00000000
9509,KNO2,2.527,4.91315757,4.91315757,4.91315757,130.22975647,107.98012277,92.60548902
9510,Sr2H6Os,2.5074000000000005,5.41457967,5.41457967,5.41457967,60.00000000,60.00000000,60.00000000
9511,Al2S3,2.5209,6.51326469,6.51326469,6.51326544,55.67363270,55.67363270,55.67362950
9512,ZrTi(PbO3)2,2.5042999999999997,5.69315100,5.69315100,4.43006000,90.00000000,90.00000000,90.00000000
9513,LiCaH3,2.5159,5.11974048,5.11974048,5.11973957,61.18455606,61.18455606,61.18455605
9514,Sr2ZnMoO6,2.5027,5.69705132,5.69705132,5.69705132,120.38143622,120.38143622,89.34059307
9515,Sr2ZrTiO6,2.5161,5.74935971,5.74935971,5.74935971,120.33852865,120.33852865,89.41464450
9516,NaMg30BO31,2.5059000000000005,8.45106500,8.56892800,8.62486500,90.00000000,90.00000000,90.00000000
9517,Y2Th8O19,2.5298,3.78198200,4.05227800,27.52147900,90.00000000,90.00000000,90.00000000
9518,TmInO3,2.527,5.45997200,5.78780900,8.29024700,90.00000000,90.00000000,90.00000000
9519,TmGaO3,2.5280000000000005,3.49447824,3.49447824,11.70390400,90.00000000,90.00000000,120.00000458
9520,Li3Mn(PO4)2,2.5257,10.49217500,8.01466700,8.47442091,72.31961591,90.00000000,90.00000000
9521,Cs4Au6S5,2.4949,10.63582060,10.63582060,5.54716800,90.00000000,90.00000000,120.00000372
9522,LiTaO3,2.5071,4.74977800,5.11723900,8.83457100,90.00000000,90.00000000,90.00000000
9523,Rb2AgAsF6,2.503,6.39425207,6.39425207,6.39425207,60.00000000,60.00000000,60.00000000
9524,K2RbInBr6,2.527,8.38618602,8.38618602,8.38618602,60.00000000,60.00000000,60.00000000
9525,K2TbCuCl6,2.5232,7.33279490,7.33279490,7.33279490,60.00000000,60.00000000,60.00000000
9526,K2ErCuCl6,2.5012999999999996,7.28633233,7.28633233,7.28633233,60.00000000,60.00000000,60.00000000
9527,K2TmCuCl6,2.5266,7.27277992,7.27277992,7.27277992,60.00000000,60.00000000,60.00000000
9528,K2LuCuCl6,2.5016,7.24736085,7.24736085,7.24736085,60.00000000,60.00000000,60.00000000
9529,Rb2TmCuCl6,2.5060000000000002,7.32421770,7.32421770,7.32421770,60.00000000,60.00000000,60.00000000
9530,Cs2YAgI6,2.5216000000000003,8.62363247,8.62363247,8.62363247,60.00000000,60.00000000,60.00000000
9531,CsRb2AsI6,2.5002000000000004,9.15407852,9.15407852,9.15407852,60.00000000,60.00000000,60.00000000
9532,Cs2ScInBr6,2.5284999999999997,8.26256961,8.26256961,8.26256961,60.00000000,60.00000000,60.00000000
9533,Rb3InBr6,2.5129,8.41724497,8.41724497,8.41724497,60.00000000,60.00000000,60.00000000
9534,Li6Zn3(PS4)4,2.4946,9.27157400,11.61793554,23.19768539,89.93789025,89.97196425,89.93054240
9535,Li6Zn3(PS4)4,2.5179,9.30877000,11.60006292,23.15904076,90.03856688,90.02668966,90.03295971
9536,Li6Zn3(PS4)4,2.497,9.31692267,11.59590053,23.18249360,90.07790091,89.96724761,90.01559472
9537,Li10Zn(PS4)4,2.5017999999999994,7.90896100,12.33501700,17.90837017,46.48726749,90.00000000,90.00000000
9538,Li10Zn(PS4)4,2.5073,7.92157000,12.39913600,17.92193193,46.25616874,90.00000000,90.00000000
9539,Li10Zn(PS4)4,2.5226999999999995,6.17888700,7.89918096,13.00067592,89.94091851,89.84089328,89.82237164
9540,Li10Zn(PS4)4,2.5250000000000004,6.18418300,10.23460996,10.27875122,78.84645003,89.75015815,89.92417185
9541,P2S3,2.5027,4.68837500,10.65268600,25.80630600,90.00000000,90.00000000,90.00000000
9542,Sr15La2Cl36,2.5314,4.99573910,4.99573875,85.23297198,60.11554318,60.11554554,59.99655239
9543,LiMnPO4,2.5087,4.90192600,7.92596400,17.35440600,90.00000000,90.00000000,90.00000000
9544,LiFe2OF5,2.5193000000000003,4.72774705,4.72774705,18.44349700,90.00000000,90.00000000,90.00411334
9545,Li6FeSn3(PO4)6,2.4963,8.61403900,8.62006690,8.62678927,64.33987627,64.47102275,64.19961754
9546,Ge2N2O,2.5129000000000006,5.46675683,5.46675683,5.46675683,147.02351875,127.17948485,63.69126024
9547,AgBrO3,2.5145,4.46487738,4.46487738,4.46487780,80.35369306,80.35369306,80.35368981
9548,AlCoO3,2.5206,5.17564903,5.17564903,5.17564898,55.59903088,55.59903088,55.59903478
9549,NaBrO2,2.5300000000000002,8.50911500,5.66354500,7.40517981,74.32442298,90.00000000,90.00000000
9550,Na3SbS4O9,2.4934,11.36281200,11.36281200,11.36281200,90.00000000,90.00000000,90.00000000
9551,LiUAs(H4O5)2,2.5184,7.14380400,7.14380400,9.44111100,90.00000000,90.00000000,90.00000000
9552,K3FeMo4O15,2.5237,5.84719779,16.27784560,17.08911841,91.62775631,99.72479951,90.12203446
9553,Ba(H2O3)2,2.5257,5.32028418,5.32028418,8.41947128,83.91445029,83.91445029,73.47148420
9554,KV5Zn(H8O11)2,2.4949,8.82360000,10.94255232,11.30392024,64.47380926,75.21569825,71.16611962
9555,Gd3FeO6,2.5276,7.26457676,7.26457676,5.55282200,90.00000000,90.00000000,102.93355878
9556,Li2PtF6,2.5122,4.74930900,4.73384400,10.46205334,63.16877099,90.00000000,90.00000000
9557,Na2In2SiS6,2.5139,7.29640944,7.29640944,12.38062784,74.70281923,74.70281923,65.88563068
9558,Li2CaTa2O7,2.5022,9.61812261,9.61812261,5.58126600,90.00000000,90.00000000,146.34421932
9559,Na2Zn(GeS3)2,2.5041,7.28781564,7.28781564,11.65336099,84.54828416,84.54828416,118.88545525
9560,Li8TeN2,2.5239000000000003,7.23611470,7.23611470,7.23611470,120.16551634,120.16551634,89.71355556
9561,K3NaMnCl6,2.5018000000000002,8.45594364,8.45594364,8.45594373,92.22055488,92.22055488,92.22055037
9562,Cs2HgBr4,2.5027,10.50237800,8.15913700,16.57719240,60.64187725,90.00000000,90.00000000
9563,Ti3(HO2)4,2.5015,13.23517353,13.23517353,11.60001095,69.59354243,69.59354243,12.77822218
9564,VAsO5,2.4923,8.73628100,6.42412600,9.08166443,45.19185899,90.00000000,90.00000000
9565,SrCo2(AsO4)2,2.5025000000000004,5.72025565,7.22701916,9.59328591,111.54679080,101.29766500,98.86879864
9566,TiAg2(IO3)6,2.5252,7.46942714,7.46942714,7.46942682,95.77901097,95.77901097,95.77900724
9567,CsNbV2O8,2.4923,5.72331800,9.33434600,17.09207843,74.20314703,90.00000000,90.00000000
9568,HgAsF7,2.5149999999999997,10.21904000,7.29889600,8.10996031,77.05531033,90.00000000,90.00000000
9569,CsCrAs2O7,2.5014,10.31803000,8.09993800,8.89561822,73.96964918,90.00000000,90.00000000
9570,RbNbV2O8,2.5132,5.69328900,9.21428100,15.23257500,90.00000000,90.00000000,90.00000000
9571,LaTl(PS3)2,2.5242000000000004,7.57980500,11.52879100,12.16404062,70.52905518,90.00000000,90.00000000
9572,NdV2IO9,2.5221,7.10460300,7.31132300,14.69715300,90.00000000,90.00000000,90.00000000
9573,CoH2PbN3O8,2.5063,8.74864743,8.74864743,14.03074699,64.30896660,64.30896660,49.83008313
9574,Bi2O3,2.5155,11.41361000,11.41361000,11.41361000,90.00000000,90.00000000,90.00000000
9575,SmV2IO9,2.5048000000000004,7.06086200,7.27972700,14.58919200,90.00000000,90.00000000,90.00000000
9576,FeH12C6N(ClO2)2,2.4976000000000003,8.86163200,8.39100300,18.42806133,87.95965244,90.00000000,90.00000000
9577,V5NiH20NO22,2.5152,8.87704900,11.17515716,11.27109625,65.46745014,71.93233649,71.82145097
9578,B2S3,2.5263999999999998,16.26974947,16.26974947,19.15790271,115.12676360,115.12676360,90.00000000
9579,Ba2NaNb5O15,2.5069,8.19816282,17.89052333,18.29466026,90.00000000,102.94754561,90.00000000
9580,MoP4H38C13(NCl)4,2.5254000000000003,12.95729981,16.68643552,16.66397594,90.00000000,90.00000000,90.26577390
9581,Co2H36N13Cl5O3,2.5248999999999997,13.04384454,13.04384454,7.09689242,88.31757386,88.31757386,70.71967788
9582,Ti2Bi2O7,2.5239000000000003,7.42726900,7.45512200,10.52072400,90.00000000,90.00000000,90.00000000
9583,In2Hg6(PCl3)3,2.4934000000000003,10.94162700,10.54111300,11.07459224,63.73786182,90.00000000,90.00000000
9584,BP4H36Rh(C9F5)4,2.5140000000000002,12.27590689,12.78799220,16.05132428,104.71849674,109.82979904,98.46126699
9585,Fe2P3(O3F)3,2.5033,14.63232597,14.63232597,7.47517600,90.00000000,90.00000000,119.99999987
9586,Li5La5(SiN3)4,2.5211999999999994,11.06710800,11.06710800,5.60835800,90.00000000,90.00000000,90.00000000
9587,CaRe3H9(S2O3)2,2.5321000000000002,8.97424822,8.97424822,9.09907400,90.00000000,90.00000000,120.00000161
9588,CuH6C2SeI,2.4969,7.21480800,7.66609500,11.42732997,87.81703555,90.00000000,90.00000000
9589,Ca2VP3O11,2.5138000000000003,6.74557100,6.48841000,19.37163646,80.76079252,90.00000000,90.00000000
9590,B2Pb4O7,2.5258,7.53949608,7.53949608,15.76275000,90.00000000,90.00000000,94.79173480
9591,Ga2Hg3Cl8,2.5314,15.72874100,7.40957200,14.87925040,82.34443905,90.00000000,90.00000000
9592,LiVPH4O7,2.5082000000000004,6.42799127,6.42799127,13.14934300,90.00000000,90.00000000,90.38921021
9593,CoAs2S6(NF3)6,2.5195,9.55481400,9.68766100,16.66842216,54.99083139,90.00000000,90.00000000
9594,CdRe2H26C6S6(N4O3)3,2.5258000000000003,10.75394077,10.75394077,15.13475788,73.67736473,73.67736473,85.17513134
9595,Mo2PbSe2O11,2.5052000000000003,8.09906100,8.35877547,9.00453584,82.92526807,114.87054667,113.21078437
9596,ZnH12C6(S2N)2,2.4966,9.42928062,9.42928062,18.79687654,86.56977980,86.56977980,118.96767926
9597,CrH10N2Cl5O,2.5239000000000003,7.22290100,9.91615200,14.04787200,90.00000000,90.00000000,90.00000000
9598,Sb2O3,2.5179,4.84612400,8.30690800,10.81270665,59.19179049,90.00000000,90.00000000
9599,ZnBi6P2(O7F)2,2.5213,8.90963125,8.90963125,16.81807798,70.23812646,70.23812646,36.89849396
9600,Tm2(CN2)3,2.5044000000000004,7.33108747,7.33108747,5.20243860,84.03814586,84.03814586,29.61430511
9601,FePb2WO6,2.5101999999999993,5.67091295,5.67091295,5.67091295,60.00000000,60.00000000,60.00000000
9602,Te4Xe(OF5)4,2.4942,5.71099800,8.84720065,10.55591560,109.77399924,97.92283498,91.23994234
9603,TeBr4,2.5242,11.02864301,11.02864301,16.88946544,67.43941386,67.43941386,62.67354905
9604,Ta3Te4ClO15,2.5158000000000005,10.42312453,10.42312453,21.55243961,65.51007849,65.51007849,44.10426722
9605,Li2H6PtO6,2.5271999999999997,5.55466748,5.55466748,4.52438300,90.00000000,90.00000000,119.99999384
9606,Li2FeGeO4,2.5008,7.52362805,7.52360973,8.26703046,65.25791980,65.25788653,94.61933169
9607,K2NaCo(NO2)6,2.5186,7.28036718,7.28036718,7.28036718,60.00000000,60.00000000,60.00000000
9608,GdInO3,2.5157000000000003,5.60347600,5.93298600,8.21589500,90.00000000,90.00000000,90.00000000
9609,Fe2H2Se3O10,2.5006,10.16561500,8.01407800,12.93070066,63.36164156,90.00000000,90.00000000
9610,Be3Ag4P3BrO12,2.5122999999999998,8.63032000,8.63032000,8.63032000,90.00000000,90.00000000,90.00000000
9611,Ba5Er8Ni4O21,2.5322,10.11130939,10.11130939,10.11130939,94.55442670,94.55442670,147.26577083
9612,Ba5MgMnV4(Cl3O7)2,2.5232,5.81939600,13.54675200,16.02264417,66.42640850,90.00000000,90.00000000
9613,Ba2CrF6,2.5129999999999995,8.62355349,8.62355349,6.07900900,90.00000000,90.00000000,138.38510104
9614,Ba3Sr2Re3ClO15,2.5017,10.90359366,10.90359366,7.82034600,90.00000000,90.00000000,119.99999792
9615,AlZn2Sb(HO)12,2.4931,5.45499230,5.45499230,9.90130600,90.00000000,90.00000000,120.00000368
9616,PmPaO4,2.5064,3.84951400,3.84951400,5.52364300,90.00000000,90.00000000,90.00000000
9617,NaScTiO4,2.5233,3.06786800,9.42018100,11.02675200,90.00000000,90.00000000,90.00000000
9618,Na4Li4MnFe3P4(O4F)4,2.5135,11.12278900,6.44012300,13.26918615,61.19925192,90.00000000,90.00000000
9619,Na2SrAl4(B2O7)2,2.5023999999999997,4.95289038,4.95289038,15.98952000,90.00000000,90.00000000,120.00000507
9620,MnNb4FeO12,2.516,5.13574700,5.87841900,14.55731500,90.00000000,90.00000000,90.00000000
9621,MgTi2MnO6,2.4934,5.15145617,5.15146111,9.93023167,74.99007193,89.98026804,120.00058700
9622,Mg3ZnO4,2.5084,3.02618900,3.02618900,8.55323600,90.00000000,90.00000000,90.00000000
9623,Mg2V2CoO8,2.5119,6.11747803,6.56206678,8.40626800,89.99993158,89.99994464,62.22750464
9624,Li4GeS4,2.5080999999999998,6.19128200,7.81332000,14.16790000,90.00000000,90.00000000,90.00000000
9625,Li4GeS4,2.5005999999999995,6.45861000,7.86855800,13.44115300,90.00000000,90.00000000,90.00000000
9626,LaSmCr2O6,2.5242000000000004,5.50144700,5.58657000,7.83052000,90.00000000,90.00000000,90.00000000
9627,LaFeTeO6,2.5123999999999995,5.27559517,5.27559517,10.45687844,89.61312181,89.61312181,121.30462425
9628,KTi3NbO9,2.5069,3.81904800,6.46050700,15.07466900,90.00000000,90.00000000,90.00000000
9629,Hg2I3Br,2.5149999999999997,4.56726613,4.56726613,14.07070788,88.75777066,88.75777066,69.41849207
9630,HgBrCl,2.4995000000000003,4.66211700,6.91981200,13.46800600,90.00000000,90.00000000,90.00000000
9631,InSb3(PO4)6,2.5269000000000004,8.74227100,8.53584600,14.63211486,55.18493202,90.00000000,90.00000000
9632,Gd2GeMoO8,2.5183,6.73859832,6.73859832,6.73859832,134.64093333,134.64093333,66.08862287
9633,CsLiZnS2,2.5021,7.70477095,7.70477095,7.70477095,149.25198564,149.25198564,44.04052760
9634,Cs2Zr2Mn(MoO4)6,2.5179,8.95801700,8.97076037,8.97799926,100.09099372,100.27959367,100.11928867
9635,Cd5Bi6(Cl3O2)4,2.5039,12.42387076,12.42387076,12.42387076,154.15880494,126.86063621,60.00818424
9636,CaZrV2O8,2.5294,5.91898811,5.91898811,5.91898811,106.11408464,106.11408464,116.41683518
9637,Ba4Ti11O26,2.5225,7.85805400,7.92014738,10.04550049,76.16171673,67.00024005,75.70259487
9638,Ba4MgTa10O30,2.5027,10.03801645,10.03801645,10.03801645,133.53011992,117.81853125,81.05951011
9639,Ag3C(NO2)3,2.5301,11.70688100,5.30779200,7.51543576,57.24363533,90.00000000,90.00000000
9640,Mg5(SiN3)2,2.5012,5.40176550,5.30680034,12.10971262,90.00000197,94.13613083,119.42012524
9641,Li6SeN4,2.4942,6.56640600,6.56640600,4.89734700,90.00000000,90.00000000,90.00000000