,pretty_formula,bandgap,cell_length_a,cell_lentgh_b,cell_lentgh_c,cell_angle_alpha,cell_angle_beta,cell_angle_gamma
4483,Na4SnO4,2.0957999999999997,5.95337800,5.96644429,8.96496265,82.35887214,71.11966724,68.56214241
4484,BaY2PdO5,2.0879,6.59917300,6.59917300,5.93197400,90.00000000,90.00000000,90.00000000
4485,BaDy2PdO5,2.0878,6.58143700,6.58143700,5.92385400,90.00000000,90.00000000,90.00000000
4486,BaTb2PdO5,2.1173999999999995,6.61164600,6.61164600,5.93166600,90.00000000,90.00000000,90.00000000
4487,RbSnCl3,2.1018,5.59874100,5.59874100,5.61290575,89.40499047,89.40499047,90.03880110
4488,MgAgF3,2.1161,3.98821700,3.98821700,3.98821700,90.00000000,90.00000000,90.00000000
4489,MgMo3P3O13,2.0948,6.65624500,7.82198200,10.55234566,80.30162042,90.00000000,90.00000000
4490,MgV2O5,2.1064,3.43080300,4.90130100,11.60194900,90.00000000,90.00000000,90.00000000
4491,Mg2Sn3O8,2.1141999999999994,6.24238239,6.24238239,5.27806609,71.97575926,71.97575926,60.26636511
4492,SrSn(PO4)2,2.1113,5.69344499,7.04855782,9.28743014,110.70439776,100.56013408,98.08234405
4493,CaNiO2,2.0864,3.12961538,8.35078753,8.13612842,77.48824722,89.77190680,102.20178721
4494,Mg2TaBiO6,2.0843,7.98418200,5.58399000,5.61309750,86.64513904,90.00000000,90.00000000
4495,TaMnZn2O6,2.1158,7.59199500,5.27984900,5.48180552,84.16364852,90.00000000,90.00000000
4496,MgCr2O4,2.1039000000000003,2.92613700,9.66996400,9.81785800,90.00000000,90.00000000,90.00000000
4497,Mg(SnO2)2,2.0929,6.15129400,6.98835700,11.19908500,90.00000000,90.00000000,90.00000000
4498,SnO2,2.1008999999999998,3.23057523,3.23057523,10.79056200,90.00000000,90.00000000,119.99998431
4499,CaCoAs2O7,2.1148,9.11328600,7.46493900,9.46713237,69.36676677,90.00000000,90.00000000
4500,CaMnO2,2.1349,5.73752724,6.55209351,5.75725286,90.00578952,69.53540403,89.99417719
4501,KAlTe2,2.1455,7.11505666,7.11505666,7.11505666,104.07732345,104.07732345,120.89976464
4502,Sr2H3I,2.1454,4.24824827,4.24824827,7.71592500,90.00000000,90.00000000,120.00000419
4503,CeZr7O16,2.1244,7.35295900,7.35295900,5.33225600,90.00000000,90.00000000,90.00000000
4504,Zn2SiO4,2.1181000000000005,7.77725917,7.77725917,7.77725917,136.07171749,113.56441139,83.10856042
4505,Na2ZnS2,2.1451000000000002,6.75563400,7.16493600,18.67559500,90.00000000,90.00000000,90.00000000
4506,BaC2,2.1335,4.51420418,4.51420418,8.34073337,72.95703278,72.95703278,63.89416461
4507,Li3YN2,2.119,9.11388334,9.11388334,9.11388334,109.47122063,109.47122063,109.47122063
4508,In2(CN2)3,2.1515000000000004,10.33976080,10.33976080,10.33976082,34.86715335,34.86715335,34.86715566
4509,KRbMg14O15,2.1228999999999996,4.26476400,8.58858800,9.61444200,90.00000000,90.00000000,90.00000000
4510,NaMg14MnO16,2.1414999999999997,4.30295000,8.49676000,8.58592900,90.00000000,90.00000000,90.00000000
4511,KMg14AlO16,2.1507000000000005,4.37914600,8.50758500,8.60315900,90.00000000,90.00000000,90.00000000
4512,RbNaMg30O31,2.1315000000000004,8.61758600,8.64979400,8.70286400,90.00000000,90.00000000,90.00000000
4513,RbLiMg30O31,2.1482000000000006,8.59537200,8.64197200,8.67973000,90.00000000,90.00000000,90.00000000
4514,KSbO2,2.1412,5.89129370,5.89129370,5.67969395,67.14782724,67.14782724,94.86792240
4515,CsSnCl3,2.1315,5.62488200,5.62488200,5.62488200,90.00000000,90.00000000,90.00000000
4516,K5Na3Ta8O24,2.1523000000000003,8.03092300,8.03092300,8.02972500,90.00000000,90.00000000,90.00000000
4517,K2CdSnSe4,2.1300999999999997,6.84201304,6.84201304,6.84201252,105.52573446,105.52573446,117.68806215
4518,SrAgTeF,2.1448000000000005,4.39882000,4.39882000,9.73009800,90.00000000,90.00000000,90.00000000
4519,Li2CuAu,2.1195,10.17517469,10.17517469,10.17517469,123.69264540,118.77319349,87.93224712
4520,ZnGa4S7,2.1319000000000004,6.14963600,6.52198100,15.38865000,90.00000000,90.00000000,90.00000000
4521,OF2,2.1259,3.01923300,5.97058900,9.03141000,90.00000000,90.00000000,90.00000000
4522,ScTlP2S7,2.1363,6.66778234,6.66778234,6.54321906,84.05487164,84.05487164,98.01097102
4523,Tl2HgTe,2.1305000000000005,12.68795024,12.68795024,12.68795024,121.16626840,116.09558090,92.44192622
4524,Zr8MnCu2(PO4)12,2.1217,9.01276700,9.04731613,15.66254672,90.21274472,106.69389863,119.68015530
4525,Tb2SeO2,2.1482,6.68800359,6.68800359,6.68800359,146.51140983,146.51140983,48.08776852
4526,SrLaI5,2.1432999999999995,11.48082963,11.48082963,8.01422999,88.51384109,88.51384109,147.45687555
4527,Sr9La5I33,2.1483000000000003,13.05535573,12.96318788,24.54099767,100.36387737,81.05095302,70.46009253
4528,ScAgO2,2.1455,3.24122149,3.24122149,12.52261900,90.00000000,90.00000000,119.99998955
4529,SnH5CI3N2,2.1512000000000002,6.31823022,6.31823022,6.55492700,90.00000000,90.00000000,92.58753466
4530,Ni(N3O2)2,2.1517,6.26690236,6.26690236,4.11606281,80.22799517,80.22799517,92.78551454
4531,Rb2GdAgCl6,2.1229,7.65137762,7.65137762,7.65137762,60.00000000,60.00000000,60.00000000
4532,K2TlInBr6,2.137,8.26020363,8.26020363,8.26020363,60.00000000,60.00000000,60.00000000
4533,CsK2AlI6,2.138,8.98282292,8.98282292,8.98282292,60.00000000,60.00000000,60.00000000
4534,K2TmAuCl6,2.1446,7.54546434,7.54546434,7.54546434,60.00000000,60.00000000,60.00000000
4535,K2InSbF6,2.1462999999999997,6.76466289,6.76466289,6.76466289,60.00000000,60.00000000,60.00000000
4536,K2LaCuCl6,2.1426999999999996,7.49840214,7.49840214,7.49840214,60.00000000,60.00000000,60.00000000
4537,Cs2RbGaBr6,2.1443,8.27992059,8.27992059,8.27992059,60.00000000,60.00000000,60.00000000
4538,Cs2KGaBr6,2.1456999999999997,8.14365688,8.14365688,8.14365688,60.00000000,60.00000000,60.00000000
4539,Cs2ErAuCl6,2.1261,7.65880507,7.65880507,7.65880507,60.00000000,60.00000000,60.00000000
4540,Cs2ScInI6,2.129,8.84046394,8.84046394,8.84046394,60.00000000,60.00000000,60.00000000
4541,Rb2LaCuCl6,2.1383000000000005,7.52618154,7.52618154,7.52618154,60.00000000,60.00000000,60.00000000
4542,CsRb2AlI6,2.1249000000000002,9.01763096,9.01763096,9.01763096,60.00000000,60.00000000,60.00000000
4543,Rb2TmAuCl6,2.1332,7.57248996,7.57248996,7.57248996,60.00000000,60.00000000,60.00000000
4544,Na3RhF6,2.1335,5.90469942,5.90469942,5.90469942,60.00000000,60.00000000,60.00000000
4545,Rb2LiIrF6,2.1225,5.95419124,5.95419124,5.95419124,60.00000000,60.00000000,60.00000000
4546,Rb2AlInBr6,2.12,8.01494223,8.01494223,8.01494223,60.00000000,60.00000000,60.00000000
4547,K6Sn2S7,2.1268,9.81852500,13.30360600,14.63882600,90.00000000,90.00000000,90.00000000
4548,Si3(MoO6)2,2.1471,10.37572046,10.37572046,10.37572046,109.47122063,109.47122063,109.47122063
4549,Al2Si3(SnO4)3,2.123899999999999,10.66789491,10.66789491,10.66789491,109.47122063,109.47122063,109.47122063
4550,Ho2HgO4,2.1233,7.06349109,7.06349109,10.11815154,58.57180707,58.57180707,29.66910737
4551,NaCaMg3Fe6(PO4)9,2.1426,8.64978728,8.64978728,18.20096438,80.73825209,80.73825209,93.02908403
4552,Ba3Ti3(BO6)2,2.1529,8.88921474,8.88921474,3.85725100,90.00000000,90.00000000,120.00000552
4553,Li3Fe3(PO4)4,2.1337,8.58172500,8.97931388,9.44667029,103.10211443,105.00266750,114.10860259
4554,Si2H2O3,2.1385,10.29234696,10.29234696,14.30752245,60.49835229,60.49835229,50.41359471
4555,RbF3,2.153,4.54617800,6.75043400,9.95042700,90.00000000,90.00000000,90.00000000
4556,MoPNO7,2.1228,9.24674800,6.51016500,12.88145241,75.18538985,90.00000000,90.00000000
4557,Hg2ClO,2.1229,7.27329377,7.27329377,9.74592433,75.39985494,75.39985494,61.21400755
4558,K3Na8FeH12S6(NO18)2,2.1310000000000002,10.54074964,10.54074964,10.54074973,63.31079049,63.31079049,63.31079424
4559,CsVSO6,2.143,6.69102600,10.87124100,17.87611400,90.00000000,90.00000000,90.00000000
4560,Bi2O3,2.1231,5.98913407,5.98913407,5.98913348,64.39085246,64.39085246,64.39085500
4561,InAsH2O5,2.1318,5.60899700,5.75965929,6.83233295,98.16151520,94.41162424,107.46034796
4562,BaNb2V2O11,2.1339,10.17590121,10.17590121,10.17590070,32.27713541,32.27713541,32.27713584
4563,UC2O7,2.1411,13.26903140,11.93941399,7.00034161,84.68398210,63.62752691,31.68849099
4564,Dy3GaS6,2.1403,8.53510865,8.53510865,6.47933800,90.00000000,90.00000000,102.44832496
4565,Y3GaS6,2.1311999999999998,8.56234141,8.56234141,6.49132800,90.00000000,90.00000000,102.39601184
4566,NaNd3GeS7,2.1184000000000003,10.29665629,10.29665629,5.86717500,90.00000000,90.00000000,120.00000184
4567,Ba2CoGe2O7,2.1416,8.49288248,8.49569055,11.28445110,90.01447050,89.99619637,89.96145805
4568,NaFe(MoO4)2,2.1242,5.39348101,5.69040972,14.00232461,90.01653964,89.99423616,118.29307208
4569,Sr2CoGe2O7,2.1467,5.39526700,8.26178500,8.26193500,89.99713585,89.99806965,89.99902602
4570,Tl3V5O14,2.145,8.85145038,8.85145038,5.32839400,90.00000000,90.00000000,120.00000285
4571,Mg2SiSe4,2.1315,6.29472800,7.92620600,13.50787600,90.00000000,90.00000000,90.00000000
4572,Cs2V3O8,2.1336000000000004,9.08916700,9.08916700,6.16873300,90.00000000,90.00000000,90.00000000
4573,KNb2Cl11,2.1275,7.05093800,7.11032809,17.66363713,79.22639482,79.00202843,87.46411609
4574,KSnPS4,2.1498999999999997,12.29583800,6.91589500,11.12610513,53.68080840,90.00000000,90.00000000
4575,CsSnPS4,2.1366999999999994,6.32534300,6.92179500,18.45750500,90.00000000,90.00000000,90.00000000
4576,NaFeH4SO6F,2.1341,5.84512827,7.30439623,7.47618559,89.91177607,89.90546758,112.64027572
4577,LuMoBrO4,2.149,6.93791200,7.20254013,10.77698893,102.83320016,107.80925864,95.42992557
4578,Cs2MoS3O,2.1514,7.60288500,10.05450000,12.40041200,90.00000000,90.00000000,90.00000000
4579,YTl2P2S7,2.1307000000000005,12.03001253,12.03001253,18.92261415,60.72945839,60.72945839,32.54384170
4580,Na3FeS2(O4F)2,2.1264,6.73968800,8.94933400,14.24180400,90.00000000,90.00000000,90.00000000
4581,K4Ge(PS3)4,2.1283000000000003,7.39448946,7.39448946,23.62218373,81.38863294,81.38863294,65.79184684
4582,SmTl2P2S7,2.1369,12.03435269,12.03435269,18.97839738,60.20706985,60.20706985,32.77887164
4583,Sr2P7Br,2.1331,9.91756800,9.91756800,9.91756800,90.00000000,90.00000000,90.00000000
4584,Ag2P2H2O7,2.1433,15.37541370,14.50367475,7.18572831,82.94859329,69.41771893,27.63368778
4585,Cs2PAuS4,2.1530000000000005,7.15408800,7.29065100,20.45837400,90.00000000,90.00000000,90.00000000
4586,UH6C2(SO4)2,2.1304,10.34117600,13.36240600,15.86635087,67.60759396,90.00000000,90.00000000
4587,ReBi9O17,2.1502000000000003,20.12747600,10.09193400,11.82370787,54.89318908,90.00000000,90.00000000
4588,Cs3Hf2P5S18,2.1363000000000003,7.01946378,7.01946378,34.59567319,86.77551156,86.77551156,92.97882090
4589,Ag2Te4MoO12,2.1478,9.40490021,9.40490021,11.58711523,76.15997108,76.15997108,36.70226148
4590,NaUH9(SeO6)2,2.1449,10.58194300,8.97862200,14.04366619,65.85900304,90.00000000,90.00000000
4591,CsCuPS3,2.1498,13.22073300,9.71695300,10.70153589,74.00846057,90.00000000,90.00000000
4592,Ba4CrGa2(S3F2)2,2.1491000000000002,6.24266000,13.26556200,18.71770600,90.00000000,90.00000000,90.00000000
4593,NaY(C2O5)2,2.1351,11.87957700,6.79751000,6.81830753,78.31645153,90.00000000,90.00000000
4594,Rb3P3H5N,2.1364,9.74477300,13.06342900,15.41759400,90.00000000,90.00000000,90.00000000
4595,BaLa2Ti3O10,2.1273999999999997,14.55381407,14.55381407,7.74101900,90.00000000,90.00000000,164.47485273
4596,Pb3(NO4)2,2.1278999999999995,5.88958700,7.85014300,18.92583500,90.00000000,90.00000000,90.00000000
4597,H4CN4O3,2.1502,7.86233400,11.25216100,13.91633305,53.80227637,90.00000000,90.00000000
4598,LaGaS3,2.1506,6.10343200,10.49435700,22.15452400,90.00000000,90.00000000,90.00000000
4599,TePb5O8,2.1252999999999993,12.27139400,7.59902400,13.16114697,55.53267995,90.00000000,90.00000000
4600,CeH8(SO6)2,2.1430000000000002,5.75322100,11.21638000,14.84279500,90.00000000,90.00000000,90.00000000
4601,Mn2Fe(CO)14,2.1439,9.63561557,9.63561557,12.02743572,85.06452260,85.06452260,100.25627664
4602,KV2SeO7,2.1242,5.52736600,7.15806000,18.57842400,90.00000000,90.00000000,90.00000000
4603,SnH4S6(NCl)6,2.1436,13.29017400,7.36416000,11.93042056,57.87495881,90.00000000,90.00000000
4604,CsVSO6,2.1349,6.66243200,10.74227000,17.97035600,90.00000000,90.00000000,90.00000000
4605,BaLa2Ti3O10,2.1239,14.67693057,14.67693057,7.74496700,90.00000000,90.00000000,164.65477793
4606,Cs3SbS4,2.1304999999999996,10.15037200,10.24120600,11.94765400,90.00000000,90.00000000,90.00000000
4607,V5H18N3O17,2.1310000000000002,10.42259400,10.43332638,16.91452159,83.54798295,86.71895982,69.62735326
4608,KUHSO7,2.1222,8.54904700,11.19340900,13.72540800,90.00000000,90.00000000,90.00000000
4609,NaCoSO4F,2.1448,6.76787429,7.91925919,7.91893683,66.56088566,92.47315429,92.47306941
4610,CaTiO3,2.1397,5.46298438,5.46298438,7.69697100,90.00000000,90.00000000,90.62957377
4611,YPtF7,2.1466000000000003,5.54246200,8.95430100,12.04024030,62.38448350,90.00000000,90.00000000
4612,UMo2H2O9,2.1206,18.51218654,18.51218654,11.57181104,89.47012127,89.47012127,21.11565853
4613,RbMo3(PO7)2,2.1273,6.51421700,9.13422900,10.89187061,69.07254192,90.00000000,90.00000000
4614,Sm3Sc2(FeO4)3,2.1481,11.08289948,11.08289948,11.08289948,109.47122063,109.47122063,109.47122063
4615,Nd3Sc2(FeO4)3,2.1251999999999995,11.15837013,11.15837013,11.15837013,109.47122063,109.47122063,109.47122063
4616,Na3Li3Rh2F12,2.1389,10.97738295,10.97738295,10.97738295,109.47122063,109.47122063,109.47122063
4617,KHg5Br11,2.1405,10.15055095,10.15055095,6.99065279,72.22315268,72.22315268,101.12555116
4618,KGdTiO4,2.153,5.41075200,5.52534800,13.17142600,90.00000000,90.00000000,90.00000000
4619,KUSiHO6,2.1285,7.10127400,6.73510200,6.76101160,74.76020727,90.00000000,90.00000000
4620,Nd2P3H5WO9,2.1189,8.81237000,9.85912400,13.54711657,64.29207759,90.00000000,90.00000000
4621,C4NCl3,2.1415,4.11684500,13.41463900,21.92928825,78.94921250,90.00000000,90.00000000
4622,BC10XeF17,2.143,16.10399900,6.81024700,14.84810111,80.41292330,90.00000000,90.00000000
4623,ZnCd4(GaS2)10,2.1406,5.56034300,6.51975807,24.55360372,92.76618132,89.99794419,115.24053676
4624,TaTl6VS8,2.1212,7.75643900,7.75643900,7.75643900,90.00000000,90.00000000,90.00000000
4625,TaInBi2O7,2.1386000000000003,7.62890009,7.62890009,7.62890009,120.45902925,119.87777160,89.70930940
4626,SrMg3O4,2.1245000000000003,3.30149600,3.30149600,8.97960800,90.00000000,90.00000000,90.00000000
4627,RbNbTeO6,2.1357,7.38500786,7.38500786,7.38500786,120.61804421,119.49293663,89.90668092
4628,Nb4AgBi5O18,2.1393999999999997,12.93699770,12.93699770,5.60818359,89.83000878,89.83000878,155.13552680
4629,Nb9PO25,2.1184,11.39869797,11.39869797,15.88345820,45.83486371,45.83486371,19.65956474
4630,NaTi3FeO8,2.1305000000000005,6.49105893,6.49105893,6.56788316,73.48500768,73.48500768,34.43789786
4631,NaPrTi2O6,2.1227,5.48416500,5.51320600,7.75354200,90.00000000,90.00000000,90.00000000
4632,NaNdTi2O6,2.1393000000000004,5.47245800,5.50854500,7.73527100,90.00000000,90.00000000,90.00000000
4633,NaNd3Ti2(SbO7)2,2.1512000000000002,7.36181331,7.36181331,7.32281421,60.83332315,60.83332315,61.05536610
4634,Mg4Te3Se,2.146,4.52516800,4.52516800,12.70419600,90.00000000,90.00000000,90.00000000
4635,MgTi2Nb2(PbO3)5,2.1461999999999994,5.83617834,5.83617834,12.11402674,78.25769180,78.25769180,58.15434329
4636,KYTa2O7,2.1343,7.54824449,7.54824449,7.54824449,121.02674505,119.99995169,89.11546671
4637,La8Si5N14O,2.143299999999999,5.77478100,11.45035267,13.51545305,112.19238216,89.98931702,90.87841921
4638,KFeH5(SO5)2,2.1277,9.04344070,10.54838966,11.32154067,63.64127207,70.08638542,93.03520803
4639,Ho6Mg(GeS7)2,2.1220000000000003,9.78170833,9.78170833,5.87919000,90.00000000,90.00000000,120.00000222
4640,Dy2ScNbO7,2.1458999999999997,7.36975784,7.36975784,7.36975784,120.74959935,119.26411842,89.99293557
4641,CsSiSbO5,2.1254999999999997,7.29214693,7.29214693,19.94927900,90.00000000,90.00000000,90.01543421
4642,CeZr3O8,2.136,5.32757700,5.35312981,5.50218916,89.66331119,80.97963040,89.41208267
4643,Ce2ZrO6,2.1361999999999997,6.55299031,6.55299031,6.55299031,146.25887503,131.67350657,60.23520338
4644,K4Re6TeC6S7N6,2.1311999999999998,15.21500851,15.21500851,15.21500851,70.52877937,70.52877937,109.47122063
4645,BiSb3F20,2.1272,9.00442809,9.00442809,5.62089789,88.86742020,88.86742020,110.88767164
4646,BaSrBiSbO6,2.138,6.02406797,6.02406797,6.02406791,60.99923350,60.99923350,60.99923628
4647,Ba3Ho2MoO9,2.1428999999999996,6.08619339,6.08619339,14.88961619,89.68301528,89.68301528,59.79120869
4648,Ba2ScTi2BiO9,2.1468,9.00693116,9.00693116,4.04344200,90.00000000,90.00000000,142.59100249
4649,Ba3Sr(HgO2)4,2.1491000000000002,6.85432785,6.85432785,25.39766800,90.00000000,90.00000000,119.99999855
4650,Ca3Ga2(SnO4)3,2.1437999999999997,11.13986755,11.13986755,11.13986755,109.79781667,109.79781667,108.81998478
4651,Cd3H36C10N5Cl11,2.1286,10.78657458,10.78657458,15.92210200,90.00000000,90.00000000,115.42169752
4652,Sm2MgSe4,2.149,7.62654800,8.84914278,13.92100609,99.40205504,95.56820230,89.95461216
4653,La2MgS4,2.1258999999999997,7.48593848,7.48593848,7.48593848,111.09396409,111.09396409,106.27231805
4654,H7C2N7O6,2.1384,5.16215500,7.68755261,11.54566337,84.30249524,84.32483768,79.52838718
4655,CaO,2.1384,11.45770671,12.55290998,11.68367069,84.80702766,82.59485791,92.61410986
4656,MgO,2.1521999999999997,9.79490462,9.75943154,10.06863548,91.47733279,88.38553023,88.97787415
4657,Y5(SiN3)3,2.1350999999999996,7.55293862,10.98972971,15.42243800,90.00000000,90.00000000,136.67833929
4658,K2ZnTe2,2.1526,8.74000669,8.74000669,8.74000669,132.43951259,130.11260264,71.39129211
4659,Ca3Fe2(Si2O7)2,2.1386,9.44397260,9.44397260,10.17830529,59.13353200,59.13353200,48.47546646
4660,Mg3Fe2(Si2O7)2,2.1325,9.25565775,9.25565775,10.00450573,59.51371588,59.51371588,48.84422530
4661,Ca(FeO2)2,2.1187000000000005,5.21268520,6.02194406,11.20186101,90.00340361,89.99342121,90.02175977
4662,Li2MnOF3,2.1249,5.31736201,6.12435920,10.59741893,99.93659203,101.28606344,110.00404193
4663,CaFe(GeO3)2,2.1321999999999997,5.51440251,10.33367810,9.16686818,88.93047144,89.69769270,75.90198552
4664,LiV2OF7,2.1216999999999997,5.67915583,9.51164985,5.67929473,87.39547374,64.40143084,87.39539107
4665,BaFe2S2O,2.1256999999999997,4.11832600,6.67952537,9.97013139,89.85443419,90.00079529,89.99956135
4666,VOF2,2.118,5.21265087,7.55559737,5.40737555,92.17751713,90.05986634,89.98448479
4667,Zn2FeWO6,2.1254999999999997,5.33647843,7.61720577,5.65867355,94.69295943,90.09071674,90.23385369
4668,CaCr2O4,2.1479999999999997,6.23963065,6.23961697,6.23960900,59.99995836,59.99994203,60.00007619
4669,CaSe,2.1362,4.21765012,4.21765012,4.21765012,60.00000000,60.00000000,60.00000000
4670,Lu2MgS4,2.1437,7.77414974,7.77414974,7.77414974,60.00000000,60.00000000,60.00000000
4671,TiCdO3,2.1222000000000003,5.36967800,5.48663900,7.71809500,90.00000000,90.00000000,90.00000000
4672,Ca3Zn3(TeO6)2,2.1295999999999995,11.04434230,11.04434230,11.04434230,109.47122063,109.47122063,109.47122063
4673,KSnAsO5,2.1357999999999997,6.82048200,11.14481200,13.70401600,90.00000000,90.00000000,90.00000000
4674,K2NbAgS4,2.1502,13.38617315,11.93209941,7.38939590,84.21042910,62.47733720,33.31223370
4675,Cs2PtCl4,2.1481,7.53945296,7.53945352,9.66508905,90.00000000,90.00000000,89.98392622
4676,MgCoF5,2.1241000000000003,5.25051329,5.25051329,7.37034938,69.30597637,69.30597637,72.14811165
4677,LiHoS2,2.1353,6.57458099,6.57458099,6.57458104,34.42457015,34.42457015,34.42456786
4678,K4CaU3O12,2.1364,7.51360003,7.51360003,7.51360003,109.47122063,109.47122063,109.47122063
4679,CaLaCrWO6,2.1305000000000005,5.57306237,5.71595600,7.88706105,89.99989922,89.19113268,90.00006053
4680,LiSbWO6,2.1215,4.75928800,5.09390500,17.74070400,90.00000000,90.00000000,90.00000000
4681,Ba2TaN3,2.1197999999999997,6.75659387,6.75659387,13.40602326,89.55488616,89.55488616,125.01223382
4682,K2Te,2.1399,5.82098222,5.82098222,5.82098222,60.00000000,60.00000000,60.00000000
4683,Na2UO4,2.1382000000000003,5.84254800,6.00840700,11.90406400,90.00000000,90.00000000,90.00000000
4684,RbMnO4,2.1425,5.95253500,7.82662300,9.69293600,90.00000000,90.00000000,90.00000000
4685,K3AlTe3,2.1197999999999997,14.25181200,8.76482100,11.25627023,52.40651323,90.00000000,90.00000000
4686,BaSiO3,2.1330999999999998,5.51827359,5.51827359,13.28025100,90.00000000,90.00000000,119.99999513
4687,Sr3TbRhO6,2.1439000000000004,6.86849016,6.86849016,6.86849066,92.09282765,92.09282765,92.09283275