,pretty_formula,bandgap,cell_length_a,cell_lentgh_b,cell_lentgh_c,cell_angle_alpha,cell_angle_beta,cell_angle_gamma
3243,ZnS,2.0199999999999996,3.85324297,3.85324297,88.13558500,90.00000000,90.00000000,119.99998229
3244,ZnS,2.0244999999999997,3.85245174,3.85245174,88.18292700,90.00000000,90.00000000,119.99999556
3245,RbMoPClO5,2.032,6.57377400,6.57377400,7.63772600,90.00000000,90.00000000,90.00000000
3246,ZnS,2.0318000000000005,3.85406458,3.85406458,81.90264400,90.00000000,90.00000000,120.00000993
3247,ZnS,2.0164999999999997,3.85271383,3.85271383,75.59590300,90.00000000,90.00000000,119.99999706
3248,ZnS,2.0206999999999997,3.85382495,3.85382495,75.55896300,90.00000000,90.00000000,119.99998190
3249,ZnS,2.0229999999999997,3.85400814,3.85400814,56.68972500,90.00000000,90.00000000,120.00000246
3250,C37F21,2.018,11.29745500,11.34937726,12.51415293,69.58924377,69.72392719,76.53407925
3251,ZnS,2.0174000000000003,3.85294453,3.85294453,69.26189300,90.00000000,90.00000000,120.00000917
3252,ZnS,2.0389,3.85220081,3.85220081,25.21722600,90.00000000,90.00000000,120.00001397
3253,Na2U(WO5)2,2.0352,6.82530300,7.66599320,8.63356395,89.92126981,93.00736441,106.55327304
3254,ZnS,2.0379,31.52757762,31.52757748,31.52757825,7.01505789,7.01505986,7.01505918
3255,ZnS,2.0251,3.85395977,3.85395977,56.68944500,90.00000000,90.00000000,119.99999606
3256,ZnS,2.0244,3.85357179,3.85357179,63.00434200,90.00000000,90.00000000,119.99999632
3257,ZnS,2.029,3.85395617,3.85395617,56.68939100,90.00000000,90.00000000,120.00000296
3258,ZnS,2.0369,3.85165965,3.85165965,44.09850900,90.00000000,90.00000000,119.99999395
3259,TeS2(NCl)2,2.0361000000000002,11.25121081,11.25121081,7.75902790,83.80858390,83.80858390,49.65493899
3260,CaU(MoO4)4,2.0273000000000003,6.74832300,8.36170100,14.29053915,54.57971417,90.00000000,90.00000000
3261,ZnS,2.0181,3.85368825,3.85368825,62.98734100,90.00000000,90.00000000,120.00000437
3262,GaS,2.0248,3.62351608,3.62351608,17.40252300,90.00000000,90.00000000,120.00000147
3263,ZnS,2.0398,3.85172774,3.85172774,50.41076900,90.00000000,90.00000000,119.99999559
3264,ZnS,2.0421000000000005,3.85195175,3.85195175,44.10287500,90.00000000,90.00000000,119.99999574
3265,ZnS,2.0301,3.85227834,3.85227834,50.39897300,90.00000000,90.00000000,120.00000579
3266,ZnS,2.0313999999999997,3.85300147,3.85300147,63.02499400,90.00000000,90.00000000,119.99999089
3267,ZnS,2.0239000000000003,3.85300730,3.85300730,63.02483900,90.00000000,90.00000000,119.99998797
3268,ZnS,2.0324,25.25338402,25.25338402,25.25338355,8.75481661,8.75481661,8.75481716
3269,ZnS,2.0281000000000002,3.85401397,3.85401397,56.68988400,90.00000000,90.00000000,119.99999955
3270,ZnS,2.0266,3.85392392,3.85392392,56.68844000,90.00000000,90.00000000,119.99999869
3271,BaV2(P2O7)2,2.0447999999999995,6.26197366,12.58012869,8.06332339,102.16835845,101.24456567,77.31123211
3272,GaBiO3,2.0453,5.19457600,5.49398100,10.11700300,90.00000000,90.00000000,90.00000000
3273,IClOF,2.0482,7.27602100,8.08811500,13.08189147,85.38630673,90.00000000,90.00000000
3274,Sr4Ti5(Si2O11)2,2.0169,7.61799130,7.61799130,12.00765735,67.41171573,67.41171573,43.79985924
3275,NaNb3(TeO4)4,2.0246999999999997,7.55558600,6.71265000,14.42705257,77.91133187,90.00000000,90.00000000
3276,K2MoO8,2.0328,11.12987937,11.12987937,11.12987969,64.39813681,64.39813681,64.39814243
3277,AgTeNO5,2.0326,5.36933400,5.70875000,14.52898900,90.00000000,90.00000000,90.00000000
3278,Te3As2S(OF6)2,2.0234,10.06565300,10.52813978,16.26309370,75.12636513,77.41078274,63.42714361
3279,ZnS,2.0197000000000003,3.85386699,3.85386699,50.39060600,90.00000000,90.00000000,120.00001697
3280,Ba2La2Mn(WO6)2,2.0239000000000003,5.79976097,10.04548219,9.83887753,99.79748790,72.85823662,89.99999537
3281,Ca3Fe2(SeO3)6,2.0235,14.18355762,14.18355762,14.18355764,35.49032068,35.49032068,35.49031803
3282,Rb2Sb4S7,2.0252999999999997,7.60847300,9.84806198,11.92028740,100.38276060,87.79996016,102.69699991
3283,ZnS,2.0322999999999998,3.85340644,3.85340644,25.18961900,90.00000000,90.00000000,120.00000763
3284,ZnS,2.0271,3.85200459,3.85200459,44.08481900,90.00000000,90.00000000,120.00001012
3285,YAg3(PS4)2,2.0267999999999997,9.79726522,9.79726522,9.49073951,61.03895898,61.03895898,56.95709675
3286,Cs2PbO2,2.0171,8.03025500,8.34491823,11.16478442,85.06848911,109.37252968,118.66742803
3287,USeO6,2.0169,5.74059800,6.98045800,13.49384560,75.68054179,90.00000000,90.00000000
3288,Cs4CO4,2.0380000000000003,6.25491932,6.25491932,6.25491967,88.89035081,88.89035081,88.89035116
3289,Ga(SbBr)4,2.0175,10.39943500,13.91837200,18.88824700,90.00000000,90.00000000,90.00000000
3290,TlH12C4Br4N5,2.0265,7.31215800,11.16378300,23.75070135,63.22318621,90.00000000,90.00000000
3291,SiSe2,2.0445,7.20085391,7.20085391,7.20085391,128.50694043,121.45215625,81.69770517
3292,In3SnI5,2.0208000000000004,9.05888000,9.09115900,17.77693977,80.51546428,90.00000000,90.00000000
3293,In3SnI5,2.0166000000000004,9.13032100,9.04269500,19.05851225,66.80047986,90.00000000,90.00000000
3294,SiC,2.0410999999999984,3.09465488,3.09465488,25.30910000,90.00000000,90.00000000,120.00001889
3295,TaBr5,2.0282999999999998,6.71989100,14.07664500,19.58196300,90.00000000,90.00000000,90.00000000
3296,Bi(W2Cl5)3,2.0311,9.37243069,9.37243069,26.74116334,88.69560467,88.69560467,91.40874387
3297,SiC,2.0203000000000007,20.28236370,20.28236370,20.28236391,8.76380734,8.76380734,8.76380711
3298,Ga2PbSe4,2.0313,15.41176780,12.74360261,12.58330267,74.96122326,52.99230856,52.04646818
3299,Rb2PtC4(BrN2)2,2.0185,9.57919000,7.45264800,9.11572733,73.27041647,90.00000000,90.00000000
3300,Ga2RhC4Cl7O4,2.0192,10.03503600,10.04579198,10.61042009,76.40843371,76.82887702,65.69231284
3301,CsCu2ICl2,2.0373000000000006,5.55818200,7.76227300,8.83039680,69.79664068,90.00000000,90.00000000
3302,ZnS,2.0381,37.83834020,37.83834018,37.83834087,5.84490073,5.84490103,5.84490009
3303,ZnS,2.0264999999999995,37.82495548,37.82495546,37.82495607,5.84754026,5.84754056,5.84754019
3304,ZnS,2.0194,3.85345482,3.85345482,113.26671900,90.00000000,90.00000000,120.00001403
3305,ZnS,2.0243,37.82863160,37.82863158,37.82863220,5.84871469,5.84871498,5.84871460
3306,ZnS,2.0265,37.82790613,37.82790611,37.82790674,5.84745292,5.84745321,5.84745283
3307,ZnS,2.0385,37.83798865,37.83798863,37.83798932,5.84502688,5.84502719,5.84502626
3308,Cs3BiSe3,2.02,10.84879500,10.84879500,10.84879500,90.00000000,90.00000000,90.00000000
3309,CoHCO3,2.0226,7.37125307,7.37125307,7.37125222,95.53130633,95.53130633,95.53130715
3310,Cr3H8(NO5)2,2.0159000000000002,9.43416400,11.39856800,19.22408700,90.00000000,90.00000000,90.00000000
3311,As3H9RhC3(BrO)3,2.0178000000000003,9.23499900,9.34493300,17.28579063,67.31894440,90.00000000,90.00000000
3312,Na2Nd2Ti3O10,2.0458,14.64115209,14.64115209,14.64115209,164.88596718,164.88596718,21.43737557
3313,K2PdN2(ClO2)2,2.0217,4.50638000,7.20110762,7.84327375,65.68098843,78.06687997,79.86112976
3314,SnS16(Cl2O)2,2.0416,14.21997000,8.90686200,23.96798846,69.86799047,90.00000000,90.00000000
3315,La2GeS5,2.0242000000000004,12.81514900,7.71542200,7.96877673,78.69217701,90.00000000,90.00000000
3316,H6N4O9,2.0445,13.71943600,4.53850400,6.94357118,86.70079280,90.00000000,90.00000000
3317,TeHO3,2.0456999999999996,11.52333400,4.98984500,9.73161515,59.22709889,90.00000000,90.00000000
3318,Te(HO)6,2.0206,5.91528034,5.79077966,5.37207892,63.86912730,61.50927335,54.62159935
3319,U3(HO5)2,2.0423,5.56301800,5.89897677,7.52882057,73.77179540,71.87971139,73.49680822
3320,Si4H2O9,2.0333,15.90114054,15.89038969,7.51283115,76.41050213,76.25116625,27.33833163
3321,AgNO3,2.0191,7.08627900,7.44728300,10.29958000,90.00000000,90.00000000,90.00000000
3322,Rb2Cr3O10,2.0282,9.48481700,11.67183800,19.25821900,90.00000000,90.00000000,90.00000000
3323,Os5C17O16,2.0169,10.17936600,16.07371938,16.71692957,96.74047324,103.30901878,93.31588872
3324,Re2N2ClF9,2.0294,8.09398200,8.84369000,14.50626000,90.00000000,90.00000000,90.00000000
3325,Os4C13S2O13,2.0278,12.73000900,10.31670400,19.14854564,64.61426874,90.00000000,90.00000000
3326,GeOs2C8(ClO2)4,2.0246,21.49145100,10.22930700,14.48298214,64.34160823,90.00000000,90.00000000
3327,As3Pb5ClO9,2.0211,10.79276107,10.79276107,7.36859200,90.00000000,90.00000000,119.99999432
3328,Cs3HgI5,2.035,10.40034800,18.93609700,19.33909400,90.00000000,90.00000000,90.00000000
3329,C2IO,2.0235000000000003,6.03636000,6.03636000,39.41842000,90.00000000,90.00000000,90.00000000
3330,K2La2Ti3O10,2.0418999999999996,15.28115725,15.28115725,15.28115725,165.29487936,165.29487936,20.85407093
3331,BaNd2Ti3O10,2.0161,14.38031104,14.38031104,7.69400400,90.00000000,90.00000000,164.30055086
3332,K5InO4,2.0401000000000002,13.45967600,16.91453655,17.09771726,114.14836031,112.97889649,90.25729865
3333,PRu4C15O14F3,2.0336,10.02429800,16.60801940,16.90686987,108.89658893,100.67398523,102.66045182
3334,Sn7(SBr5)2,2.0181,6.70564000,11.24782944,11.42051644,61.49078869,85.72117945,82.76869346
3335,Ce3Dy2O9,2.046,13.88558802,13.88558802,13.88558802,164.03683679,164.03683679,22.64956598
3336,Mg3(AsO4)2,2.0324000000000004,7.16916700,8.91098129,8.94374975,65.19600967,71.95356769,78.78881543
3337,Al2PbSe4,2.0161,6.35888146,6.35888146,11.02024500,90.00000000,90.00000000,120.78492736
3338,Yb(PrS2)2,2.0251,7.43830865,7.43830865,7.43830865,109.56020571,109.56020571,109.29339669
3339,NaNdS2,2.0185999999999997,7.21088901,7.21088901,7.21088901,133.28357538,133.28357538,68.20915965
3340,ZnS,2.0167,3.85322858,3.85322858,138.48421300,90.00000000,90.00000000,120.00000989
3341,ZnS,2.021,3.85344366,3.85344366,138.50372600,90.00000000,90.00000000,119.99999411
3342,In5Br7,2.0373,13.43163600,13.43163600,38.23315600,90.00000000,90.00000000,90.00000000
3343,Os5(CO)19,2.0266,8.96848400,10.36884002,16.72358467,99.90585183,93.63337254,110.12759086
3344,Al2RhC4Cl7O4,2.0206999999999997,9.82398100,9.88263761,10.35704163,76.48075929,76.07330937,66.15696771
3345,LiSb2(PO4)3,2.0471999999999997,9.06964400,8.77710700,15.46276970,55.47122949,90.00000000,90.00000000
3346,CsTiMnOF5,2.0244999999999997,7.39513689,7.55896298,7.55888633,60.67447530,119.28626000,119.28609374
3347,Na3Sr4Nd3Ti10O30,2.016,5.51325300,5.51670736,19.89413166,97.91678863,97.87624857,89.52653417
3348,CrPO4,2.0444,9.58078700,4.96456400,8.61435517,56.17724972,90.00000000,90.00000000
3349,Na2SrLa2Ti5O15,2.0231000000000003,19.92554262,19.92554262,5.52378409,82.21772694,82.21772694,15.95458915
3350,K6Sb2H18S8O9,2.0290999999999997,11.27209800,10.54424400,11.78626143,84.69612795,90.00000000,90.00000000
3351,Rb8BaNaAl11Si13O48,2.0294,12.24164500,12.27086111,12.61196189,90.28059465,90.38534226,90.05717971
3352,NiH16C2S3N6O7,2.0391,16.62978500,6.53793500,7.03993988,79.28663815,90.00000000,90.00000000
3353,LiCr4(PO4)3,2.0429,8.89522520,8.89522520,7.35476496,68.52523817,68.52523817,90.13795901
3354,H12RuC4S2N2Cl2O5,2.0347,13.78277200,9.00786500,12.01287745,76.84252922,90.00000000,90.00000000
3355,Cr(Bi7O12)2,2.0176000000000003,8.89417700,8.89740945,10.46863503,114.14514045,114.44590870,90.63093280
3356,SbHC3(NCl3)3,2.0297,9.91312500,13.39952100,14.13649027,58.95029962,90.00000000,90.00000000
3357,Ca2V3Ni2AgO12,2.037,10.88681738,10.88681738,10.88681738,109.39029381,109.39029381,109.63319580
3358,H2CS3,2.0226,23.21684000,6.06247500,13.70653305,88.30306690,90.00000000,90.00000000
3359,Na4GeH28(Se2O7)2,2.0407,8.58518948,8.58518948,8.21802535,76.09692630,76.09692630,82.53979538
3360,Ce2Sm2O7,2.0349,7.80718011,7.80718011,7.80718011,60.00000000,60.00000000,60.00000000
3361,TiV2O7,2.0316,8.73746300,8.73746300,8.73746300,90.00000000,90.00000000,90.00000000
3362,Na2NiO2,2.0404000000000004,5.52341800,5.52341800,5.52341800,149.88702553,131.34169245,58.29229922
3363,LiFeB2O5,2.0367,11.85084000,4.36834000,6.21350197,88.78327615,90.00000000,90.00000000
3364,CeTh2O6,2.0420000000000007,6.81683343,6.81683343,6.81683343,146.40152094,131.80200235,60.03344110
3365,Li4Co7(OF7)2,2.0286,5.10191200,5.95271382,10.50236407,92.41001904,91.05269493,90.96187707
3366,Li3V(OF)2,2.0444999999999998,5.17364766,10.22841872,5.87352096,73.31293376,89.99761191,81.47122946
3367,LiCrSiO4,2.0463000000000005,5.57876200,7.96747300,5.84547200,90.00004118,89.99989964,89.99989112
3368,Li3MnVP2(HO5)2,2.0352,7.29695382,8.01896545,7.61029526,88.54670124,116.89663924,89.08571653
3369,Li2VF6,2.0221,5.23021800,5.20005500,9.21503242,55.99188280,90.00000000,90.00000000
3370,LiMnOF2,2.0377,5.23830755,9.94158949,5.15041193,106.96092003,61.86371255,91.28253129
3371,LiV(CO3)2,2.0204000000000004,5.78628988,6.13426650,12.27139044,88.85774025,77.74249951,102.19561198
3372,Y(BiO2)3,2.0434999999999994,7.01502989,7.01502989,7.01503000,92.77863363,92.77863363,92.77863018
3373,Li3Mn2F9,2.0427,5.29811400,5.32864186,15.17729131,92.08517508,93.16868914,118.37619038
3374,NbFeO4,2.0282,6.19038000,6.19038000,8.55942200,90.00000000,90.00000000,90.00000000
3375,LiVSiO5,2.0454,6.29329600,4.66233600,6.38834301,87.48407057,90.00000000,90.00000000
3376,Li4Co7(OF7)2,2.0279000000000003,6.05168100,6.09062750,10.58025400,91.41736229,105.89577629,118.55341489
3377,Li2VBO4,2.0473000000000003,4.71815700,5.86864500,10.89453200,90.00001502,90.00024766,89.99969569
3378,Li3Fe3OF7,2.0228,6.13134067,6.13134067,6.25406965,60.32067009,60.32067009,57.51812051
3379,Hf2N2O,2.0361000000000002,7.04210958,7.04210958,8.17680185,79.83057686,79.83057686,26.74351156
3380,V2CoO6,2.0286,5.88740565,6.82077868,6.82143794,96.50678346,74.33752988,105.67055924
3381,Li3Fe4(OF3)3,2.0252000000000003,5.95410600,6.00913059,6.03792767,99.87926994,99.27753667,98.91735371
3382,Rb3LuO3,2.0393999999999997,7.28755609,7.28755609,7.21986851,84.71222385,84.71222385,115.72081501
3383,K2LiFeO3,2.0402,6.07419200,9.04702740,9.04703048,85.52570978,109.61644310,70.38349366
3384,LaMgI5,2.0176000000000003,4.35709100,15.22545200,17.52556000,90.00000000,90.00000000,90.00000000
3385,Na3VBPO7,2.0256,8.48956183,8.49118019,8.99493187,89.06130719,89.07076206,102.32914249
3386,Li4CrO4,2.0412999999999997,7.78964487,5.22471589,5.20214650,68.03908502,96.89469909,109.32870263
3387,MnV4CoO12,2.0237,6.83820267,6.83820267,5.88451863,74.81025478,74.81025478,84.12546647
3388,Rb3ErO3,2.0414000000000003,7.30107485,7.30107485,7.23968554,85.14542654,85.14542654,116.10541032
3389,LiP4WO13,2.0451,5.24342200,8.09168130,14.02169608,78.79997911,85.84363319,80.10186515
3390,Li6MnCoP2(CO7)2,2.0206000000000004,8.22000314,8.22305544,8.54708531,93.72264246,86.35860302,75.14356519
3391,Bi17W3O34,2.0217,10.27397700,10.41049024,10.41844021,107.60518243,106.16782255,113.20569215
3392,Hf2N2O,2.0236,8.70043100,8.73260641,8.73760046,109.59139655,109.47249700,109.22151815
3393,LiVP2O7,2.0366999999999997,7.98666409,6.47166001,6.21370414,112.86608870,105.04714692,97.30857311
3394,LiVF5,2.0412,5.99398230,5.99398230,10.87727700,90.00000000,90.00000000,98.87053668
3395,FeB18H32(C4S)2,2.0282999999999998,8.23932600,10.69944900,13.42080900,90.00000000,90.00000000,90.00000000
3396,VOF,2.03,3.30761800,5.25504500,7.23801800,90.00000000,90.00000000,90.00000000
3397,TiNb2O7,2.0465,7.67666000,10.56089120,11.46526170,66.87256091,80.36574825,79.52607849
3398,LiCuCO3,2.0223999999999998,3.21461400,4.80913700,17.13574469,86.78338970,90.00000000,90.00000000
3399,V6O5F19,2.0411,5.32856400,5.55107122,14.72219411,100.39211147,89.70356056,92.18668097
3400,Ba2LiVP2O9,2.0437000000000003,9.52554571,9.52554571,9.76514051,70.93426475,70.93426475,32.89344204
3401,W2OF8,2.0282,5.50792100,9.23492000,15.97726820,74.34052050,90.00000000,90.00000000
3402,LiFe2OF3,2.0239000000000003,6.22980600,6.27804002,8.62666461,91.05598765,90.03994323,90.19677427
3403,Ce4Y2O11,2.0194,3.85853800,3.85853800,16.35144600,90.00000000,90.00000000,90.00000000
3404,LiVF4,2.0206,7.85421700,8.61115300,10.25190500,90.00000000,90.00000000,90.00000000
3405,V6O5F19,2.0433000000000003,5.30504300,5.52583361,14.81711018,100.18288611,89.99923823,90.68126119
3406,LiCo2OF3,2.0411,6.09292200,6.09292200,8.61754800,90.00000000,90.00000000,90.00000000
3407,LiV2OF5,2.0217,5.29872639,5.55570748,7.49950714,95.59332854,90.56093118,89.86861207
3408,Li3Mn2F9,2.0395,5.48373600,5.65954767,14.15021345,89.15546124,93.87639653,118.61212649
3409,Fe(PO3)3,2.0233,6.94251600,7.21935359,7.32427790,83.80417434,84.50386599,76.48195023
3410,LiCo2OF3,2.0203,5.98628312,5.98628312,5.16427800,90.00000000,90.00000000,119.99999025
3411,Li2Mn4OF8,2.0342,7.06504600,8.08225701,8.74483774,69.18200864,66.55098706,79.52017493
3412,Na8TiO6,2.0299,11.64826354,11.64826354,11.67493500,90.00000000,90.00000000,119.99999737
3413,LiVP2O7,2.0410000000000004,6.53586813,9.07597226,8.40453448,90.01451100,89.86449136,77.24962854
3414,CoTe2O5,2.0431999999999997,6.04212700,7.41364900,10.76657900,90.00000000,90.00000000,90.00000000
3415,V3H8(NO4)2,2.0175,9.02863100,9.02863100,5.69214700,90.00000000,90.00000000,90.00000000
3416,Ta2MnO6,2.0256999999999996,5.81902300,7.14587100,10.85911687,75.62342569,90.00000000,90.00000000
3417,Ba3LiTi5Nb3O21,2.0419,9.24076164,9.24076164,11.74593300,90.00000000,90.00000000,120.28878902
3418,H16PdC4S4(N4Cl)2,2.0412,10.28404678,10.28404678,8.96802844,88.04511314,88.04511314,67.13191266
3419,Nb2NiO6,2.0366000000000004,4.80306100,10.37295490,9.60607600,62.41718790,90.00011929,90.00016334
3420,LiCa2Nb3O10,2.0229,5.54247200,5.54267500,27.39909437,89.50746188,90.00000000,90.00000000
3421,Ga7(Fe3O8)3,2.0330000000000004,5.17916600,8.86258984,9.54794725,89.99329781,89.82767339,89.90248336
3422,P3W2O13,2.0162,22.74262600,6.47593700,8.76891328,52.97803588,90.00000000,90.00000000
3423,DyInO3,2.0163999999999995,6.37222412,6.37222412,12.34009000,90.00000000,90.00000000,120.00000124
3424,Li4MnV(PO4)3,2.0224,9.30093259,8.41544872,8.43679734,60.59734037,63.27214585,90.37341048
3425,RbFeO2,2.0481,5.90048800,8.24989700,5.90050200,89.99990843,89.99986406,90.00023182
3426,RbFeO2,2.0204,5.23720155,10.02118100,6.62575667,90.00109678,97.85428633,89.99958521
3427,Na4Sb2C4SO16,2.0394,10.51934801,10.44594030,10.14181436,61.43344288,60.70750997,57.85904715
3428,Rb4SnO3,2.0456000000000003,6.86648400,11.88394800,20.14633800,90.00000000,90.00000000,90.00000000
3429,Li3V(BO3)2,2.0244,7.75278500,6.04765800,10.93582636,62.08408832,90.00000000,90.00000000
3430,Li2VBO4,2.0372000000000003,4.71419000,5.88922500,10.90393700,90.00000000,90.00000000,90.00000000
3431,Li2TiNi2O5,2.0424,7.71999609,7.71999609,5.18299826,83.05862346,83.05862346,141.01914188
3432,Ti2Sb2O7,2.0277000000000003,5.67750200,7.76441000,13.26402275,82.25279356,90.00000000,90.00000000
3433,LiFe(SO4)2,2.0476,8.36662100,8.38318144,8.94306819,62.43740398,62.46798619,60.15533161
3434,NbVO5,2.0402,5.57737100,14.04660400,14.07553825,59.61453769,90.00000000,90.00000000
3435,Cr4P2O9,2.0199999999999996,12.06953700,6.53635000,9.59937735,74.95191186,90.00000000,90.00000000
3436,KLi2FeO3,2.033,5.49133000,5.49820848,6.15100213,90.18742506,90.01086114,106.57190139
3437,Li2Cr3O10,2.0227,16.91814700,6.79695400,8.85849544,55.21373204,90.00000000,90.00000000
3438,Na2UO4,2.0479000000000003,6.69060860,6.69060860,6.69060860,142.05399550,142.05399550,54.74747314
3439,Ta7InO19,2.0335,6.25056158,6.25056158,20.20885300,90.00000000,90.00000000,119.99999560
3440,Li5Cu(PO4)2,2.0387999999999997,5.35367100,6.20281806,9.95127512,89.89371957,89.99831877,89.99185292
3441,Li2AlCr2SbO8,2.0450999999999997,5.87838500,5.89089109,28.78574123,90.14192443,89.95178600,119.83236938
3442,Hf2N2O,2.0242000000000004,8.72745000,8.72722029,8.73237902,109.43804720,109.44509743,109.44282328
3443,Bi24B2O39,2.048,8.73859600,8.88414573,14.25180532,90.03399485,90.17125474,109.73363505
3444,Li3V2(PO4)3,2.0176999999999996,8.65025617,8.65025617,8.69052782,61.51634264,61.51634264,60.98183032
3445,Hf2N2O,2.0237,8.70616700,8.73081082,8.74603667,109.51806932,109.41060986,109.32844377
3446,Hf2N2O,2.0381,8.72431700,8.73437401,8.72327746,109.29064490,109.41605369,109.57742337
3447,Hf2N2O,2.0272999999999994,8.70837100,8.73467460,8.73775577,109.53258109,109.52239509,109.24775924
3448,Li2FeO2F,2.0404,5.16956100,5.19022349,9.89205612,100.18817849,85.59076288,119.31631445
3449,LiFe2OF5,2.0395,4.85368900,5.34813300,15.21430511,89.31129171,90.00000000,90.00000000