,pretty_formula,bandgap,cell_length_a,cell_lentgh_b,cell_lentgh_c,cell_angle_alpha,cell_angle_beta,cell_angle_gamma
7781,NaCoPO4,2.3530000000000006,11.14787400,5.86134700,10.03430636,87.18719744,90.00000000,90.00000000
7782,PbI2,2.3556,4.66789059,4.66789059,37.62898700,90.00000000,90.00000000,120.00000832
7783,Li4Ca3(SiN3)2,2.3729000000000005,5.67935697,5.67935697,5.99877452,89.74945685,89.74945685,118.36415611
7784,CdI2,2.3734,4.33268451,4.33268451,67.07753100,90.00000000,90.00000000,120.00000779
7785,TlBr,2.3494,4.79495472,4.79495472,4.79495472,60.00000000,60.00000000,60.00000000
7786,Cs3MnI5,2.3481,11.19188284,11.19188284,11.19188284,124.27960813,124.27960813,82.73469215
7787,Tl3Bi2I9,2.3521,8.08885000,14.80314400,25.26500667,57.27213114,90.00000000,90.00000000
7788,NaHoS2,2.3432999999999997,7.03169862,7.03169862,7.03169883,32.78098846,32.78098846,32.78099080
7789,CdI2,2.3729,4.33397573,4.33397573,120.71096700,90.00000000,90.00000000,119.99999583
7790,HgC2(SeN)2,2.357,4.52351800,6.16058300,12.47138076,87.40189060,90.00000000,90.00000000
7791,CdI2,2.3775999999999997,4.33283236,4.33283236,67.36560700,90.00000000,90.00000000,120.00000552
7792,CdI2,2.3745000000000003,4.33336237,4.33336237,37.01659800,90.00000000,90.00000000,120.00000561
7793,K2CuBr3,2.3444,4.36097900,12.81371900,13.38730700,90.00000000,90.00000000,90.00000000
7794,CdI2,2.3663,4.33560246,4.33560246,74.05281500,90.00000000,90.00000000,120.00000697
7795,CdI2,2.3719,4.33293321,4.33293321,74.25493700,90.00000000,90.00000000,119.99998788
7796,CdI2,2.3723,4.33263974,4.33263974,74.39843600,90.00000000,90.00000000,119.99999596
7797,CdI2,2.377,4.33316838,4.33316838,74.13178400,90.00000000,90.00000000,120.00000573
7798,CdI2,2.3709,4.33645149,4.33645149,88.90417200,90.00000000,90.00000000,119.99999215
7799,CdI2,2.3721,4.33549182,4.33549182,89.31204200,90.00000000,90.00000000,119.99999723
7800,As3H9RhC3(ClO)3,2.349,9.12663000,9.19188900,17.15447728,67.05301647,90.00000000,90.00000000
7801,CdI2,2.3761,29.83545205,29.83545205,29.83545236,8.35405569,8.35405569,8.35405396
7802,MgTe2O5,2.3736000000000006,6.04403600,7.39787100,10.83451800,90.00000000,90.00000000,90.00000000
7803,BaTiO3,2.3732999999999995,4.12278815,4.12278815,3.98753100,90.00000000,90.00000000,90.48824126
7804,Ta3Bi7O18,2.3454999999999995,16.74533072,16.74533072,6.71401782,86.37297375,86.37297375,26.52073050
7805,Nb2Bi2PbO9,2.3590999999999998,12.99545127,12.99545127,5.70047600,90.00000000,90.00000000,154.85516609
7806,PH15C18INCl2,2.359,8.83556600,14.40295200,15.47940200,90.00000000,90.00000000,90.00000000
7807,K2NiF6,2.3729,5.82639017,5.82639017,5.82639017,60.00000000,60.00000000,60.00000000
7808,H24RuC8(S2Cl)2,2.3672,8.56896800,14.32864400,15.01950300,90.00000000,90.00000000,90.00000000
7809,ReC4IO4,2.3523,12.38941500,10.18446500,13.27742918,72.17634814,90.00000000,90.00000000
7810,Mn3Fe2(SiO4)3,2.3636,10.36266426,10.36266426,10.36266426,109.47122063,109.47122063,109.47122063
7811,Cs3Bi2I9,2.3446,8.64507786,8.64507786,21.92308900,90.00000000,90.00000000,119.99999890
7812,CdI2,2.3498,4.34502249,4.34502249,73.61374600,90.00000000,90.00000000,120.00000749
7813,CdI2,2.353,4.34505834,4.34505834,80.92837900,90.00000000,90.00000000,120.00000516
7814,CdI2,2.3456,4.34475148,4.34475148,80.96424000,90.00000000,90.00000000,119.99999202
7815,Mo(HO2)2,2.3455,3.76314400,6.35590105,7.61561617,112.92436524,88.07589731,105.92809634
7816,Ti3H2O7,2.3741999999999996,18.90218664,18.90218664,10.02874106,75.24939012,75.24939012,11.45165038
7817,Co(HO)2,2.3438,3.07528400,3.25900614,5.03609560,80.63116453,82.85554659,62.96200729
7818,CdI2,2.3587000000000002,36.42773699,36.42773699,36.42773731,6.86266791,6.86266791,6.86266723
7819,CdI2,2.3697,4.34614613,4.34614613,66.13781200,90.00000000,90.00000000,120.00000205
7820,KICl2,2.3549,11.93634400,8.52179400,12.81938008,69.38134775,90.00000000,90.00000000
7821,Cs6Bi4O9,2.3603,8.35205500,10.19762290,12.48819025,104.04299906,93.68973485,92.24210102
7822,RbPPbS4,2.3774,6.55783200,6.83364600,17.65035800,90.00000000,90.00000000,90.00000000
7823,TlVTeO5,2.3548,7.38666700,7.93803800,8.81933400,90.00000000,90.00000000,90.00000000
7824,Rb2CuCl3,2.359,4.26646300,12.68873800,13.12384200,90.00000000,90.00000000,90.00000000
7825,BaMg2H8Os,2.3653,4.99502600,4.99502600,10.87727500,90.00000000,90.00000000,90.00000000
7826,Sr(H2N)2,2.3539999999999996,7.77998000,6.69307200,6.75549084,70.54917420,90.00000000,90.00000000
7827,TaSbO4,2.3564,6.23327900,6.35488100,10.46808000,90.00000000,90.00000000,90.00000000
7828,V2PbO6,2.3541,8.25758033,8.25758033,9.08191900,90.00000000,90.00000000,118.11731014
7829,MnC4IO4,2.3518,12.42382700,9.90578400,13.19086153,71.40899193,90.00000000,90.00000000
7830,CdI2,2.3756999999999997,4.34447773,4.34447773,110.42495800,90.00000000,90.00000000,119.99999586
7831,CdI2,2.3451,4.34201450,4.34201450,103.16014500,90.00000000,90.00000000,120.00000755
7832,CdI2,2.3545,4.34620617,4.34620617,80.82506000,90.00000000,90.00000000,120.00000256
7833,CdI2,2.3723,4.34616362,4.34616362,80.83904800,90.00000000,90.00000000,119.99999429
7834,CdI2,2.3548999999999998,4.34284380,4.34284380,88.55334600,90.00000000,90.00000000,119.99999698
7835,Pb2OF2,2.3598999999999997,6.12996100,8.16721700,8.27352500,90.00000000,90.00000000,90.00000000
7836,Cs3Bi2I9,2.3629,8.64940895,8.64940895,22.00995998,89.44690146,89.44690146,119.84295665
7837,Nb3Te4ClO15,2.3494,7.97047900,10.43363160,19.65221413,85.54770045,78.31271999,67.58055780
7838,PbI2,2.3494,22.11188106,22.11188106,22.11188068,12.15580045,12.15580045,12.15580168
7839,Sn(PO3)3,2.3453,9.48305700,10.20177287,10.58468044,109.03444960,109.55292011,105.68541406
7840,Ba11W4O23,2.3458,12.54066751,12.51782724,12.74629283,59.61575002,59.46039475,58.04227428
7841,Yb(HoS2)2,2.3618,7.19842247,7.19842247,7.19842247,109.39706072,109.39706072,109.61964249
7842,Li6I3N,2.3628,6.75046950,6.75046950,6.75503514,60.34263117,60.34263117,90.39779290
7843,Nd2Zr2O7,2.3629999999999995,3.67429700,7.67588500,10.99859600,90.00000000,90.00000000,90.00000000
7844,Tb2Zr8O19,2.3641,3.64772700,3.64772700,25.77184700,90.00000000,90.00000000,90.00000000
7845,NaClO2,2.3705000000000003,6.44914300,4.85335800,6.73369904,46.20829679,90.00000000,90.00000000
7846,Sr22Nb10O47,2.3720999999999997,5.96108800,6.01978915,40.04782024,90.09050353,90.11539620,118.31485326
7847,CdI2,2.3536,4.34169237,4.34169237,103.15835900,90.00000000,90.00000000,120.00000571
7848,CdI2,2.3548,4.34172376,4.34172376,103.19125500,90.00000000,90.00000000,119.99999630
7849,Rb2Sn(GeO3)3,2.3752,12.30153764,12.30153764,10.86291200,90.00000000,90.00000000,119.99999807
7850,CdI2,2.3471,4.34410450,4.34410450,73.64119300,90.00000000,90.00000000,120.00000764
7851,CdI2,2.351,4.34470037,4.34470037,80.91313400,90.00000000,90.00000000,120.00000565
7852,CdI2,2.3758999999999997,4.34432851,4.34432851,80.95696300,90.00000000,90.00000000,120.00000778
7853,CdI2,2.3482,4.34483073,4.34483073,80.94515200,90.00000000,90.00000000,120.00001114
7854,CdI2,2.3441,4.34388855,4.34388855,81.03743400,90.00000000,90.00000000,120.00000845
7855,CdI2,2.3552999999999997,4.34597546,4.34597546,80.82293400,90.00000000,90.00000000,119.99999182
7856,CdI2,2.3523,4.34146390,4.34146390,103.15345200,90.00000000,90.00000000,119.99999850
7857,CdI2,2.3558000000000003,4.33968349,4.33968349,125.10129000,90.00000000,90.00000000,119.99999223
7858,CdI2,2.3507999999999996,4.34228824,4.34228824,139.64795900,90.00000000,90.00000000,120.00000371
7859,CdI2,2.3594,4.33911267,4.33911267,154.43503200,90.00000000,90.00000000,120.00001027
7860,CdI2,2.3597,4.33655406,4.33655406,184.03396000,90.00000000,90.00000000,120.00000094
7861,LiMo6Cl13,2.3547,8.90894700,9.07120508,13.98081311,95.60385114,102.91572809,113.72993577
7862,CdI2,2.3544,4.33918797,4.33918797,161.68819900,90.00000000,90.00000000,119.99999947
7863,CdI2,2.3569,4.33985108,4.33985135,211.42583947,90.00000000,90.00000000,119.99999798
7864,PbI2,2.3541,4.65040040,4.65040040,110.03646500,90.00000000,90.00000000,120.00000570
7865,CdI2,2.3629,4.34134830,4.34134830,103.05149500,90.00000000,90.00000000,120.00000456
7866,FeH4S2NO8,2.3535999999999997,4.90997823,11.23717492,13.20772953,92.53625927,100.80284450,77.38453354
7867,Gd3NbO7,2.3486,5.53962800,7.65351400,8.31726729,65.55424193,90.00000000,90.00000000
7868,Er18Ti14O55,2.369,7.22741123,7.22741123,23.76895474,81.62301241,81.62301241,60.15645511
7869,Al2Cd(Si5O12)2,2.3773999999999997,12.46796300,12.47639655,12.48803469,108.69145763,109.58500111,109.70024331
7870,Co2TeBr2O3,2.3675,7.83619200,10.67811500,16.26008300,90.00000000,90.00000000,90.00000000
7871,Rb2U2Mo3O16,2.3526000000000002,8.49418400,9.88120900,20.46415000,90.00000000,90.00000000,90.00000000
7872,Zn2GaP3H8(NO6)2,2.3534999999999995,11.72595300,11.95559864,12.10696317,109.49123496,107.76871010,107.90659063
7873,Li10Ge(PS6)2,2.3644,8.58995100,8.87954092,12.97496188,91.98415256,90.64261126,90.24910835
7874,UH12(NO4)2,2.3698,5.65348400,5.99691994,6.31418669,105.01186833,90.80529243,96.05479218
7875,CdH6C4(S2O)2,2.3693,9.83048924,9.83048924,12.66901423,73.22966486,73.22966486,23.90728477
7876,RbDyS2,2.3535999999999997,8.03456154,8.03456154,8.03456102,29.43069202,29.43069202,29.43068798
7877,Fe2P3C8N3(ClO2)4,2.365,16.97499700,8.24762600,15.72523199,82.51549591,90.00000000,90.00000000
7878,MgVFeMo3O14,2.3731,9.11228800,8.42557800,8.73589652,67.46675733,90.00000000,90.00000000
7879,Re6H12Pb3C2S2(N2O13)2,2.3645,16.50933300,16.50933300,5.90155700,90.00000000,90.00000000,90.00000000
7880,Li2Ti2MnCr2(PO4)6,2.3555,8.62235400,8.64346848,14.93492485,90.21796011,106.53895960,119.91898012
7881,K2H2C2S2N2O,2.3718000000000004,8.11829500,9.88007500,10.36120500,90.00000000,90.00000000,90.00000000
7882,KNbO3,2.3605,4.09003438,4.09003438,4.09003424,89.79684304,89.79684304,89.79683609
7883,VPH5NO6,2.3592,6.87949700,9.16343300,9.66373400,90.00000000,90.00000000,90.00000000
7884,VH8N2O5F,2.3689,11.50642800,6.21026000,8.12439380,89.66872274,90.00000000,90.00000000
7885,CoH18C4N8(ClO)4,2.3614,11.41147600,6.50136900,11.94078527,71.63787859,90.00000000,90.00000000
7886,K4MnH6(S2O9)2,2.3659999999999997,7.60652700,10.92753800,21.19026200,90.00000000,90.00000000,90.00000000
7887,RbNO2,2.3747000000000003,5.78213902,5.78213902,7.65195400,90.00000000,90.00000000,119.99998882
7888,Ti(PO3)4,2.3564,7.20893472,7.20893472,10.20865755,66.03707848,66.03707848,69.97091260
7889,LiFeP2O7,2.3613,8.59470300,5.15328300,6.81848768,70.93267879,90.00000000,90.00000000
7890,LiSnPHO5,2.3771,5.92753591,8.13388839,5.17312747,107.66882276,96.18270852,108.45802498
7891,WOF3,2.3593,5.49500300,5.55847300,9.54624300,90.00000000,90.00000000,90.00000000
7892,LiVSiO4,2.3484,5.41473211,9.37670919,12.46377900,89.99988980,89.99962105,89.97718500
7893,Mg(GaO2)2,2.3585,5.94650222,5.94650222,5.94650247,60.15490955,60.15490955,60.15490659
7894,Pr2S2O,2.3611999999999997,7.27930100,7.17555500,8.63732864,81.38011354,90.00000000,90.00000000
7895,Rb3SbO3,2.3729,6.91650469,6.91650469,7.82823515,85.80007746,85.80007746,107.92452618
7896,Na2VO3,2.3604999999999996,5.40418100,9.37202200,6.09416900,89.99998448,89.99987058,90.00002283
7897,Li2CeO3,2.3502,5.32967219,5.32967219,3.55472800,90.00000000,90.00000000,130.16853943
7898,Li2MnF6,2.3745000000000003,6.07859000,6.07859000,6.21345500,90.00000000,90.00000000,90.00000000
7899,Li2AlVO4,2.3745000000000003,4.97501376,6.47861726,5.55131401,89.99354206,90.00405842,89.95239444
7900,BaLaI5,2.3535000000000004,4.87365700,9.25509200,15.03418859,89.68060716,90.00000000,90.00000000
7901,SrLaI5,2.3508,4.68622100,9.34484700,15.07886123,87.62173887,90.00000000,90.00000000
7902,Li4Cr3FeO8,2.3441,5.13594823,5.95273499,5.91122080,119.76837143,90.00041343,73.32456484
7903,Cr2O3,2.3439,5.13669900,5.29964000,7.31397900,90.00006377,89.99992737,90.00006590
7904,Li2Sn(BO3)2,2.3636,5.13302200,6.72420794,8.21757474,108.44265113,89.83267042,90.59035856
7905,LiVF4,2.3691999999999998,4.61411700,5.18541000,11.87664800,90.00000000,90.00000000,90.00000000
7906,LiVF3,2.3648000000000002,7.22086234,7.22086234,5.86504533,70.14137072,70.14137072,64.43463760
7907,Li2V2Si4O11,2.3649999999999993,7.00531900,7.52305442,8.96911414,100.04274301,100.78569696,103.72557034
7908,HoCrO3,2.3515999999999995,5.28969300,5.59749600,7.64300200,90.00000000,90.00000000,90.00000000
7909,Li4MnCo3(PO4)4,2.3729999999999998,6.01533000,4.75988300,10.35183156,89.95970633,90.00000000,90.00000000
7910,Li2CrPO5,2.3447999999999998,5.11341300,12.73555900,13.03115942,61.47111739,90.00000000,90.00000000
7911,LiVPO4,2.3663000000000003,11.22221800,5.70756000,9.97687228,88.01674953,90.00000000,90.00000000
7912,Li2Cr2P2O9,2.3693000000000004,5.59482200,8.38666100,14.38112000,90.00000000,90.00000000,90.00000000
7913,K4Sb2O5,2.3452,6.45030200,7.97489900,18.36148700,90.00000000,90.00000000,90.00000000
7914,Li2V2Si5O13,2.3484000000000007,7.45497300,7.59560894,10.01490629,83.34463931,68.51801790,75.39759345
7915,LiV(CO3)2,2.3628,7.70755100,7.95652732,8.52834863,100.69480303,103.09794193,105.15015597
7916,Li5Fe3Co2(PO4)6,2.3770000000000002,8.44224900,8.54114331,8.55198567,62.01585369,62.32951847,62.47597124
7917,Li2Co2Si2O7,2.3461000000000003,4.98182304,5.33508618,13.43080500,90.00104591,89.99845846,62.18253093
7918,LiFeSiO4,2.3524,6.16756100,5.42022900,10.69410099,70.22951976,90.00000000,90.00000000
7919,Li2V(CO3)3,2.3544,6.24072639,6.24072639,9.79498000,90.00000000,90.00000000,101.05850627
7920,Li4Cr2Si3O10,2.3581,5.42090568,5.42090568,16.71014148,81.91731694,81.91731694,61.95968741
7921,Li3VF5,2.3682,6.80653500,7.56735700,8.35084000,90.00000000,90.00000000,90.00000000
7922,Li3V2P2O8F3,2.3552,8.92293000,9.21006700,10.50715900,90.00000000,90.00000000,90.00000000
7923,Ba5Nb2O10,2.3701999999999996,6.17834553,6.17834553,18.33528400,90.00000000,90.00000000,120.22516966
7924,RbLiVPO5,2.3445,7.57328900,8.40474800,8.59819600,90.00000000,90.00000000,90.00000000
7925,Li2Fe(PO3)4,2.3603,9.37551600,9.37551600,4.66945600,90.00000000,90.00000000,90.00000000
7926,Li2CrPO4F,2.3505,5.20017300,11.44402700,13.26772900,90.00000000,90.00000000,90.00000000
7927,LiMn(PO3)4,2.3623,9.45134700,6.89757800,15.73463646,66.30628769,90.00000000,90.00000000
7928,NaCo2P3O10,2.3565,8.63821800,4.73018800,9.11612046,82.34067248,90.00000000,90.00000000
7929,Li5Cr3FeO8,2.3596,8.44962800,8.60089378,8.61212591,89.65185957,89.96140641,89.95391499
7930,CrOF4,2.3485,9.98284413,9.98284413,15.11727769,67.51858316,67.51858316,33.56464878
7931,Li2FePO5,2.3744,7.84509754,7.84510352,7.84508885,70.83514212,110.08500959,70.83445700
7932,Li3Fe(CO3)3,2.3735,5.98093026,5.98093026,10.00275900,90.00000000,90.00000000,105.38044987
7933,Li2VOF3,2.3644000000000003,6.02087000,6.02083900,8.53365800,90.00009458,89.99998377,89.99949564
7934,Li3VPCO7,2.3493,6.50960500,8.65362000,9.69203239,88.08669773,90.00000000,90.00000000
7935,Li4TiS4,2.372,11.02714000,11.02714000,11.02714000,90.00000000,90.00000000,90.00000000
7936,Li3CoPCO7,2.3455,4.97759100,8.44071889,12.92155014,90.30907299,90.05161767,94.94332316
7937,H7SIO10,2.3497,5.79662500,6.02867268,12.39203800,86.83824836,86.33139815,73.65553272
7938,Li2Co(CO3)2,2.3685,5.18325576,6.58423673,15.64750809,89.82540724,89.80462922,112.95197135
7939,Li5Fe5Si7O24,2.3729999999999998,7.86413100,7.94624588,9.50522826,89.03556868,89.68223595,89.50975027
7940,LiVF4,2.3555,5.98515400,5.27096200,10.83266228,67.42473862,90.00000000,90.00000000
7941,Li2VF5,2.3638000000000003,5.35157400,7.72448300,10.09109300,90.00000000,90.00000000,90.00000000
7942,UAs2H6O11,2.3731,8.08597326,8.08597326,9.10408189,62.30367968,62.30367968,68.58412281
7943,Li2FeBO4,2.3452,5.00108200,5.86078600,10.54072600,90.00000000,90.00000000,90.00000000
7944,Ti3Bi2(PO4)6,2.3485,8.87179401,8.87179401,8.87179457,59.15953427,59.15953427,59.15953157
7945,Li4Cr3FeO8,2.3773000000000004,5.12262700,7.78268994,7.78321675,81.64059216,83.70961260,71.01635790
7946,Sn2(SO4)3,2.3468999999999998,9.28731500,8.72457700,15.30806129,55.60630738,90.00000000,90.00000000
7947,GdTa3O9,2.3463999999999996,7.35447803,7.35447803,6.55455675,86.14826282,86.14826282,62.56645220
7948,Li2VBO4,2.3718,4.90771200,6.21841900,10.24394000,90.00000000,90.00000000,90.00000000
7949,Li3Al2FeO6,2.3459999999999996,10.21703900,5.88693900,9.97053028,54.43130744,90.00000000,90.00000000
7950,Li2AlFeO4,2.3434,5.42030700,6.29633100,10.91610203,88.70711517,90.00000000,90.00000000
7951,Ba3(BrO)2,2.3516,6.37538300,11.02944900,13.24494300,90.00000000,90.00000000,90.00000000
7952,Ta3AgO8,2.3695,5.26462200,7.76365300,15.84573218,73.02336450,90.00000000,90.00000000
7953,SnBO3,2.3757999999999995,5.20115046,5.20115046,12.49287574,83.76979993,83.76979993,117.81740730
7954,Bi3IO4,2.3640999999999996,5.86185400,5.90371200,19.99506200,90.00000000,90.00000000,90.00000000
7955,Ge2N2O,2.3470000000000004,13.14723533,13.14723533,13.14723533,154.23159728,154.23159728,36.76306969
7956,Na2FePCO7,2.3491999999999997,10.34180909,8.38652437,8.41347621,77.44209052,71.00623219,107.74020642
7957,Li2Ti3MnO8,2.3698,8.52664100,8.52664100,8.52664100,90.00000000,90.00000000,90.00000000
7958,Li2FeO2F,2.3497000000000003,5.21507526,5.21507526,9.86984659,84.81619222,84.81619222,120.90691939
7959,KV5Co(H8O11)2,2.3522,8.88515900,10.80879726,11.20751984,65.99263932,75.40209904,71.05185106
7960,NbFe3Ni2(PO4)6,2.3587,8.52372739,8.52372739,8.52372725,61.01512470,61.01512470,61.01512520
7961,LaTa2NO5,2.3446,11.31642600,5.53326800,7.72976517,89.88278832,90.00000000,90.00000000
7962,Li2VF6,2.3699999999999997,6.39442900,6.39442900,6.05561200,90.00000000,90.00000000,90.00000000
7963,Ge2N2O,2.3677,5.57286188,5.57286188,5.35834863,81.21232107,81.21232107,122.19689892
7964,Li5CoHO4,2.3556,8.80857200,8.94509300,10.69823000,90.00000000,90.00000000,90.00000000
7965,LiVF3,2.3764000000000003,7.25661656,7.25661656,5.78220971,70.99180186,70.99180186,80.27012224
7966,Li6Ti3P8O29,2.3633,9.84016400,9.84339469,13.89600715,89.57860535,89.65853658,60.28263094
7967,Ca5W3O14,2.3675,10.52300300,10.53165400,10.65665500,90.00000000,90.00000000,90.00000000
7968,Li2FeF4,2.3693,8.90051345,8.90051345,8.90051347,107.73372666,107.73372666,107.73373308
7969,LiFeH12(SO7)2,2.3468999999999998,11.89535800,6.02515700,8.99011282,74.32077665,90.00000000,90.00000000
7970,Li2Cr3(NiO6)2,2.362,9.09328400,9.10285500,12.57156100,90.00000000,90.00000000,90.00000000
7971,Li2VP2HO8,2.3764,8.13465761,8.68514397,9.68099286,102.11713201,105.51663338,97.57944749
7972,V3(PO4)2,2.3649000000000004,4.90032431,10.62092290,6.14558760,90.76165631,89.97276964,89.97008653
7973,Li2Co(SO4)2,2.3769,9.18642800,9.30261800,13.80134700,90.00000000,90.00000000,90.00000000
7974,Ca4PtO6,2.3751999999999995,6.62683930,6.62683930,6.62683957,90.81152309,90.81152309,90.81152162
7975,KNdGeS4,2.3623,6.77692500,6.66957000,8.79097165,72.76459423,90.00000000,90.00000000
7976,CoTe2O5,2.3710999999999998,8.72700200,8.72700200,12.98589100,90.00000000,90.00000000,90.00000000
7977,Li2Mn4Si4O13,2.3463999999999996,6.98550000,8.06007927,10.39822838,111.56716382,89.79515980,101.94875003
7978,Ca10V6O25,2.3503,10.05999009,10.05999009,6.95979500,90.00000000,90.00000000,120.00000056
7979,RbBS3,2.3467000000000002,12.10342500,5.87787500,7.25744339,75.45391986,90.00000000,90.00000000
7980,CaC2,2.3774,4.06648118,4.06648118,7.46845574,75.17752960,75.17752960,56.38919948
7981,RbPrS2,2.3579999999999997,8.10166857,8.10166857,8.10166846,30.49323050,30.49323050,30.49323101
7982,RbNdS2,2.3533999999999997,8.09037486,8.09037486,8.09037496,30.29486753,30.29486753,30.29486800
7983,RbHoS2,2.3676999999999997,8.02741857,8.02741857,8.02741869,29.32233140,29.32233140,29.32233160
7984,CsAu3S2,2.373,6.42245596,6.42245596,5.62487800,90.00000000,90.00000000,119.99999955
7985,Na3AgS2,2.3763,7.91525955,7.91525955,7.91525955,131.94085236,127.41499338,73.98155538
7986,H5PbCI3N2,2.3667,6.35237200,6.48843000,6.50298000,90.00000000,90.00000000,90.00000000
7987,RbSnCl3,2.3473,7.84638503,7.84638503,7.84638508,61.22915159,61.22915159,61.22915282
7988,KTbS2,2.3533999999999997,7.73116761,7.73116761,7.73116788,30.54946004,30.54946004,30.54946553