,pretty_formula,bandgap,cell_length_a,cell_lentgh_b,cell_lentgh_c,cell_angle_alpha,cell_angle_beta,cell_angle_gamma
9848,Li2Fe2SiO6,2.4928,5.35303000,8.20448947,8.20449352,84.65453515,70.95987240,109.04010584
9849,LiVSiO4,2.5051,5.21519808,9.02649832,9.60642513,89.97637682,89.99251858,90.01268956
9850,LiVSiO4,2.4949999999999997,5.12598480,10.38415900,6.83472710,90.00001907,88.76574501,89.99991681
9851,Li2NiP2O7,2.5134,7.03024523,12.51570104,8.10956928,92.00996589,64.38837562,106.47643970
9852,Li4Mn3(OF3)2,2.522,6.19279659,6.94854885,8.34159352,90.09979379,74.68565171,102.72774607
9853,La2MgO4,2.4959,6.86065192,6.86065192,6.86065192,146.68933433,146.68933433,47.82399470
9854,BaLaI5,2.5083,11.49241400,8.90752700,14.58514140,62.40017369,90.00000000,90.00000000
9855,V2O5,2.5161000000000002,5.91742500,8.53193900,10.13865400,90.00000000,90.00000000,90.00000000
9856,Li4NbFe3O8,2.5106,5.16308900,5.75137864,6.60304503,89.22178469,89.80317524,89.81296134
9857,Ho2TeO6,2.5187999999999997,4.97794700,4.97794700,10.05393800,90.00000000,90.00000000,90.00000000
9858,Dy2TeO6,2.5307,4.99913600,4.99913600,10.10404800,90.00000000,90.00000000,90.00000000
9859,Rb4SiO4,2.5309999999999997,6.83044000,6.91789209,9.46113671,81.89136107,73.47456381,62.45078231
9860,K2MgO2,2.5286,5.57047800,6.11355900,10.45099000,90.00000000,90.00000000,90.00000000
9861,Li4Sn(BO3)2,2.5109999999999997,3.55526500,8.50192100,9.46257400,90.00000000,90.00000000,90.00000000
9862,TbCrO3,2.5126,5.32639400,5.60689500,7.68288000,90.00000000,90.00000000,90.00000000
9863,Li4FeO3F,2.4999,5.63762690,5.63762690,6.25795703,89.49667540,89.49667540,88.67568973
9864,LiV(OF)2,2.5286,5.42495400,6.87430100,8.94007300,90.00000000,90.00000000,90.00000000
9865,Li2Ti3O7,2.4963999999999995,5.70610246,5.70610246,10.57124674,88.24946046,88.24946046,51.28497864
9866,V4SnO12,2.5092,6.92478617,6.92478617,5.98518651,74.50036188,74.50036188,83.00529966
9867,Li2CrO4,2.5025000000000004,5.19349200,5.28603073,7.77281661,82.78585143,109.18561409,114.05439537
9868,SbOF3,2.5202,6.73879700,7.73907263,8.42964665,98.50379439,111.44393685,109.89599980
9869,Li2FePO5,2.5162000000000004,4.51919200,9.07458600,9.18727800,90.00000000,90.00000000,90.00000000
9870,LiVPO4,2.525,6.00315300,7.64705900,14.00893600,90.00000000,90.00000000,90.00000000
9871,LiVPO4,2.5263,7.51603144,7.51603144,9.77954100,90.00000000,90.00000000,119.99999506
9872,LiCrPO4,2.4943,4.94110800,7.54898900,18.36662987,87.04564503,90.00000000,90.00000000
9873,Li4MnV3(PO4)4,2.5009000000000006,6.15041100,4.77927700,10.54177836,89.98509691,90.00000000,90.00000000
9874,LiCoPO4,2.518,4.84683200,7.58551300,17.44934411,87.21347673,90.00000000,90.00000000
9875,LiV(PO3)4,2.5202999999999998,10.43586336,10.43586336,5.07085679,77.71708778,77.71708778,67.97878643
9876,Li2MnV(PO4)2,2.4997,4.78581572,10.55667696,6.14373304,89.98757938,90.00138043,90.09778655
9877,LiTi3Nb(PO4)6,2.5153999999999996,8.87309712,8.87309712,8.87309728,58.48188577,58.48188577,58.48188743
9878,LiP2WO8,2.498,4.86777154,4.86777154,7.03914434,85.94935008,85.94935008,66.92923690
9879,Li2Sn3(P2O7)2,2.5125,8.20058500,8.00334100,11.19986191,71.01701727,90.00000000,90.00000000
9880,LiV(PO3)3,2.5322,5.22871400,12.24352900,13.20258800,90.00000000,90.00000000,90.00000000
9881,Na2SnGe2(HO4)2,2.5175,5.67779900,5.95107851,11.47480708,87.61990760,80.50560647,75.49240285
9882,Li2V3(P2O7)2,2.5215000000000005,5.33850700,6.62527347,16.03223444,81.67600264,83.46847737,72.26610188
9883,LiFe(PO3)4,2.5166,9.51162000,7.22158500,7.22300599,84.43576124,90.00000000,90.00000000
9884,Co(IO3)2,2.5263,11.09334288,11.09334288,5.13910800,90.00000000,90.00000000,120.00000524
9885,LiPWO5,2.4931000000000005,7.53937714,7.53937714,10.86446164,68.40581396,68.40581396,42.43914429
9886,LiP3(WO6)2,2.4978000000000002,8.85683563,8.85683563,8.91294899,60.37371149,60.37371149,60.37125986
9887,LiFeSiO4,2.5311999999999997,5.14610700,8.03221300,8.41429577,74.60631216,90.00000000,90.00000000
9888,LiP4WO12,2.5307000000000004,7.86087032,7.86087032,9.70307765,85.49936590,85.49936590,124.38264475
9889,LiFeSiO4,2.5156,8.62418896,8.62418896,8.62418923,107.78008097,107.78008097,107.78007953
9890,LiFe3OF5,2.5008,6.18370000,6.24976411,6.27619205,91.82181191,91.42005312,91.54331646
9891,Li2VP4(H4O5)4,2.523,10.70936000,7.19374500,12.06450119,64.27951996,90.00000000,90.00000000
9892,Li2VGa3O8,2.5171,5.21117700,5.50053249,6.63989720,89.62288712,89.52764231,89.79710882
9893,Li3Fe(PO4)2,2.5046999999999997,8.50505876,8.50474649,8.50478031,63.08298612,63.08334630,63.08158219
9894,LiCr(PO3)4,2.5205,8.68468200,6.86935900,7.29904403,83.85455860,90.00000000,90.00000000
9895,Sr2VCO3F5,2.5082,8.96146700,5.61930500,13.93346509,74.99201397,90.00000000,90.00000000
9896,Li2VO3F,2.4979999999999998,5.05047900,5.21350892,5.79558087,91.05051643,91.29622969,111.69033657
9897,Bi4O5F2,2.511,8.50262300,9.09274900,9.21765600,90.00000000,90.00000000,90.00000000
9898,Li3Sb2(PO4)3,2.5044,5.14272786,5.14272786,20.09506558,89.89607574,89.89607574,67.07674070
9899,LiCo3OF5,2.4993999999999996,5.23410992,5.62153541,5.29626043,118.74120664,60.03225809,117.18637114
9900,Li8Co(O2F)2,2.4958,5.47330100,5.51797491,10.78658235,75.66238237,76.73744245,60.92725038
9901,Na2SnO3,2.5096,5.61559206,5.61559206,11.20844612,85.24830322,85.24830322,120.00871875
9902,Li3FeO2F,2.4973,3.59196900,8.78852200,9.70746800,90.00039035,90.00221215,90.00091241
9903,Li2Fe4OF8,2.5323,6.55756700,8.03942817,9.14379462,67.34312093,70.15686505,74.12605654
9904,Li4Fe7(OF7)2,2.5175,6.15558041,6.26946725,10.85899660,90.11699651,72.61663743,120.70672327
9905,Co3(PO4)2,2.5052000000000003,9.92592200,8.80000600,20.70569712,80.89597300,90.00000000,90.00000000
9906,Li6V5(P2O7)4,2.5199,9.18197200,10.52497670,13.20451080,87.86025920,106.23093137,113.82080892
9907,Li4Co3(OF3)2,2.5053,5.26384155,5.94325295,10.44901011,89.02161269,80.05865371,72.16652367
9908,LiCr3Ni(SO4)6,2.5048999999999997,8.28422600,8.30008340,8.85890223,62.12890399,62.33770243,60.24231399
9909,Bi5O7F,2.5000000000000004,4.19227200,9.75789359,13.48316450,109.15151876,89.96832899,102.38115028
9910,VO2F,2.5218999999999996,12.52125900,5.45074500,8.68607857,58.25052349,90.00000000,90.00000000
9911,Li12Mn3CrP4(CO7)4,2.5189000000000004,6.56663700,8.58611700,10.00993226,85.57578069,90.00000000,90.00000000
9912,Li4Ti11O24,2.5243,5.05666300,8.91622845,9.64578982,89.95523325,89.88364763,89.95753049
9913,Li3VPCO7,2.5279000000000003,6.50870500,8.64309800,9.71771430,88.01892193,90.00000000,90.00000000
9914,Li3VPCO7,2.5104999999999995,6.51258800,9.66912000,9.77918424,62.30373878,90.00000000,90.00000000
9915,Li3VF6,2.5276,8.66927000,5.16825000,5.32398877,69.13021446,90.00000000,90.00000000
9916,LiBi3(BrO2)2,2.5211,7.04609351,7.04609351,11.07732600,90.00000000,90.00000000,133.55594789
9917,LiFeB2O5,2.5170000000000003,9.59086200,5.71753600,6.95362293,74.05682471,90.00000000,90.00000000
9918,Li2FeBO4,2.5281,4.82327700,6.18018700,10.25800100,90.00000000,90.00000000,90.00000000
9919,Li2FePCO7,2.4937,6.49422300,9.38609900,10.16284447,62.19374046,90.00000000,90.00000000
9920,Li2CdGeO4,2.4924,5.24070000,5.57503700,6.70555500,90.00000000,90.00000000,90.00000000
9921,Na2LiTi3Al(PO4)6,2.5046999999999997,8.56462400,8.57556563,8.77630184,61.14090065,61.12160907,60.23985053
9922,RbLi2B3Sb2O9,2.4991999999999996,5.62402600,6.38121100,13.13650781,87.57401189,90.00000000,90.00000000
9923,LiMgCr3Se2(SO6)4,2.4957000000000003,8.42248800,8.43104972,8.95166129,62.57120824,62.50412875,60.51101284
9924,Na3CrPCO7,2.5046000000000004,8.51870296,8.51879899,9.16144766,89.07019980,89.06861944,103.12202999
9925,Li2AlVO4,2.5026999999999995,5.08771100,6.49137200,11.07009000,90.00000000,90.00000000,90.00000000
9926,Li2VH2OF5,2.5180000000000002,5.73862763,10.05290191,9.42276202,72.13386706,79.55944328,105.99931348
9927,Li4CrH8SO7,2.5111,13.15412000,5.35777600,10.54289254,74.92902081,90.00000000,90.00000000
9928,Li4Al3Cr3(SbO8)2,2.5105000000000004,5.86585227,11.19230190,10.14033905,63.26816516,90.18771368,104.86669905
9929,Li4Mn5P6WO24,2.4972,8.72833600,8.74463387,8.75535174,62.25192472,62.43713539,62.77152400
9930,Na3FeAsCO7,2.5035,8.66210093,8.66815316,9.24176013,89.26981257,89.28424148,104.44627619
9931,Cs4GeO4,2.5306000000000006,19.72817500,7.09125500,7.11213551,66.87216974,90.00000000,90.00000000
9932,Li3CrPCO7,2.5058,6.47225600,5.11580700,8.55451024,88.05663671,90.00000000,90.00000000
9933,LiNbFeO4,2.5113,6.14204691,6.14339572,8.78482320,89.93315571,90.07215678,90.33135971
9934,Sr3YI9,2.5314,7.71417000,8.35583800,32.98526343,88.29834368,90.00000000,90.00000000
9935,Li2CoCSO7,2.4994,6.43002376,9.95643481,8.96035030,83.39377554,90.09085569,90.07763758
9936,BaLaI5,2.4928,14.55763600,8.20681800,11.22876721,84.61120564,90.00000000,90.00000000
9937,Li2Cr2O7,2.5042999999999997,6.87500900,6.71074900,12.98584337,72.43380148,90.00000000,90.00000000
9938,Ba4Tm6O13,2.529,12.66426976,12.66426976,12.66426976,152.28931568,121.72011664,65.72747492
9939,Li2Ti3Sn(PO4)6,2.5061,8.68457622,8.68457622,8.68457594,59.79163320,59.79163320,59.79163222
9940,Li3Fe(PO4)2,2.5233000000000003,4.70427601,13.79150440,9.14327636,79.55213137,89.99446806,99.81911776
9941,Li2VO2F3,2.5101,5.39889400,7.16661900,9.46095100,90.00000000,90.00000000,90.00000000
9942,Sr3TeO6,2.5037,11.91335203,11.91335203,11.91335203,109.47122063,109.47122063,109.47122063
9943,Li2Zn3(Ge3O8)2,2.5146000000000006,8.31584600,8.31675600,8.32152267,89.74770979,90.00000000,90.00000000
9944,LiCrCSO7,2.5022,9.26724167,6.38194800,5.23087385,89.99876927,86.99906599,90.00366659
9945,Fe3OF7,2.5265,5.84956978,5.84956978,5.84957020,63.62607837,63.62607837,63.62607797
9946,Re2H6PbC(NO5)2,2.4954,7.83764000,10.79628000,14.42631390,78.67641344,90.00000000,90.00000000
9947,LiCrPO4,2.5125999999999995,5.02936800,8.30133500,16.71032300,90.00000000,90.00000000,90.00000000
9948,Cu2H26C6S7N12O5,2.5031,11.20107300,11.44354460,12.35018152,64.68038214,76.35620171,66.62434352
9949,Ti3P6WO24,2.5217,8.85457136,8.85457136,8.85457098,58.49690495,58.49690495,58.49690517
9950,LiVTeO5,2.5267999999999997,6.45128800,7.96079000,8.57365700,90.00000000,90.00000000,90.00000000
9951,YNb2NO5,2.5300999999999996,5.28814300,5.93516122,15.00866264,89.70719741,89.77478900,89.75508696
9952,CdSiO3,2.5256,5.51997100,9.74505700,9.85231600,90.00000000,90.00000000,90.00000000
9953,LiFe2OF5,2.4953,5.22232465,5.22232465,13.72668600,90.00000000,90.00000000,120.00000822
9954,YNb2NO5,2.5228999999999995,5.30567700,5.79674733,15.02838278,89.72648487,89.72334452,89.72591215
9955,NaLi3Ti2Al2(PO4)6,2.5061,8.55418600,8.56474245,8.59205128,60.68431911,60.18554231,60.05931692
9956,BaLi4NiO4,2.5067,15.30625200,5.73719000,11.26541817,71.78737770,90.00000000,90.00000000
9957,NaTi2(PO4)3,2.5131,8.71007000,8.79649135,12.25892234,89.91106639,89.28073435,89.91208751
9958,Li3VF6,2.5067,9.14842877,9.14842877,9.43202723,88.17808604,88.17808604,33.90239594
9959,Li2MnF5,2.519,5.08715500,8.12176400,9.68591400,90.00000000,90.00000000,90.00000000
9960,LiFe4OF7,2.5323,5.08352800,8.09078900,8.09143525,74.89203016,90.00000000,90.00000000
9961,LiCr(PO3)4,2.5266,8.41058200,7.24580200,7.64400221,88.02448634,90.00000000,90.00000000
9962,Li3VF6,2.515,5.15419492,5.15419492,9.70422700,90.00000000,90.00000000,120.00001178
9963,Gd3SbO7,2.5258999999999996,7.55475200,7.57280500,10.72903600,90.00000000,90.00000000,90.00000000
9964,P2H9(CBr)3,2.5267000000000004,17.16143300,7.30214500,9.45108794,58.41608375,90.00000000,90.00000000
9965,Gd3SbO7,2.5002,6.51296800,6.55228328,7.66518562,106.84645063,89.84675133,97.98955754
9966,Li3Fe(BO3)2,2.5133,5.22351600,6.88393781,7.87452662,108.04590964,96.57862973,88.38520255
9967,Li8Fe2O7,2.5120000000000005,10.01925800,7.84505100,9.32621553,71.99826939,90.00000000,90.00000000
9968,Ba3(ClO)2,2.4947999999999997,10.60025700,12.36027300,14.37400555,67.88534458,90.00000000,90.00000000
9969,LiCr(PO3)3,2.5296000000000003,8.41278000,8.75550100,9.06685600,90.00000000,90.00000000,90.00000000
9970,Li2CrP2O7,2.5196,5.09421300,8.56785800,14.45715251,61.89222103,90.00000000,90.00000000
9971,YNb2NO5,2.5152,5.28401100,5.96342600,15.02774456,89.69453914,90.00000000,90.00000000
9972,Li3Fe2(PO4)3,2.4981,8.48920184,8.99193050,8.51172117,89.64086386,60.03625106,118.24176729
9973,LiVP2O7,2.5182,7.24691975,5.81923577,7.20243634,112.61012162,105.03708628,83.92854649
9974,Fe3Ni2P6WO24,2.5304,8.53637904,8.65738751,8.65738755,60.00000087,59.52995707,59.52996310
9975,LiCoPO4,2.5233,10.06991679,10.06991679,16.43236571,82.24549974,82.24549974,58.93756153
9976,LiFeSiO4,2.5129,8.60871792,8.60871792,8.60871762,107.36503042,107.36503042,107.36503832
9977,Li3VF5,2.5098000000000003,6.63363500,7.88906800,8.10678100,90.00000000,90.00000000,90.00000000
9978,Ge2N2O,2.5262,8.91044303,8.91044303,5.10995800,90.00000000,90.00000000,160.00486038
9979,In2WO6,2.5124999999999997,5.19357900,7.50396300,11.88246656,82.63936096,90.00000000,90.00000000
9980,KLiSe,2.5271999999999997,4.52967600,4.52967600,7.31486200,90.00000000,90.00000000,90.00000000
9981,TiO2,2.499,2.98206300,4.96901600,9.55646500,90.00000000,90.00000000,90.00000000
9982,Ba4Sm4Zn3PtO15,2.5150000000000006,11.82070404,11.82070404,6.79950200,90.00000000,90.00000000,120.00000022
9983,BaSr3O4,2.5199,5.32769500,5.32769500,5.32769500,90.00000000,90.00000000,90.00000000
9984,LiAg(CO2)2,2.5111,5.32797300,3.79232300,10.23992623,86.43122869,90.00000000,90.00000000
9985,Cs2RbInBr6,2.5058,8.46129066,8.46129066,8.46129066,60.00000000,60.00000000,60.00000000
9986,KGeCl3,2.5104,5.35616159,5.35616159,5.33510833,89.08382834,89.08382834,89.15415082
9987,InPbCl3,2.5143,7.33043574,7.33043574,10.68204200,90.00000000,90.00000000,145.91212678
9988,AlSn3Se2ClO8,2.5165999999999995,7.03115900,8.96106770,10.40217720,89.98510916,97.57223650,90.18096562
9989,CaCrP2O7,2.5135,9.03721500,7.45725700,9.30114792,62.82564003,90.00000000,90.00000000
9990,ZnFeF5,2.5019,9.88342400,5.24291500,7.57700372,69.84768225,90.00000000,90.00000000
9991,Mg3Ge3(BiO6)2,2.5015,11.08122979,11.08122979,11.08122979,109.47122063,109.47122063,109.47122063
9992,CaSn3(P2O7)2,2.5208,8.31367100,8.34486500,10.11145686,71.68844012,90.00000000,90.00000000
9993,Ca2MnNb2O8,2.5129,10.19729880,10.19729880,5.53661953,88.18314973,88.18314973,36.35449013
9994,Ca2YSnO5,2.4928000000000003,5.97216400,6.04101985,8.72158981,109.78557973,108.77942377,89.36001362
9995,Ta(WO4)2,2.5195,5.12305800,5.29318612,7.21802772,107.76114870,92.91596581,104.84113825
9996,Fe2(WO4)3,2.5120999999999998,6.98593800,8.70285898,10.40406948,108.21124125,103.56792806,103.98079800
9997,MgNi(GeO3)2,2.5052,8.98574600,5.41247500,9.80003423,76.68543889,90.00000000,90.00000000
9998,ZnSn2(PO4)2,2.5225,5.23296507,9.62658733,16.51770970,87.07365145,80.85741862,74.23665186
9999,LaMgCrSnO6,2.5101999999999993,5.61920500,5.44576100,9.55491377,55.61850087,90.00000000,90.00000000
10000,Na2CoP2O7,2.5446999999999997,13.69978600,5.26115000,10.22237357,60.54440952,90.00000000,90.00000000
10001,MgSiO3,2.5702000000000007,3.52721800,3.52721800,3.52721800,90.00000000,90.00000000,90.00000000
10002,Sr4Li2Si4N8O,2.5737000000000005,9.37407300,9.37407300,5.60878800,90.00000000,90.00000000,90.00000000
10003,Zn2SiO4,2.5427999999999997,4.84969700,6.09910600,10.43784700,90.00000000,90.00000000,90.00000000
10004,Sr2BN2F,2.5675,3.93708100,9.93011600,10.30454200,90.00000000,90.00000000,90.00000000
10005,RbMg30FeO32,2.5584000000000002,8.61608000,8.61608000,8.62024700,90.00000000,90.00000000,90.00000000
10006,NaLiMg30O31,2.5548,8.52690200,8.53457100,8.57883700,90.00000000,90.00000000,90.00000000
10007,LiMg30BO31,2.5512000000000006,8.39557800,8.54534200,8.63106000,90.00000000,90.00000000,90.00000000
10008,RbAuC2,2.5753,4.58104200,4.58104200,5.24153100,90.00000000,90.00000000,90.00000000
10009,CsAuC2,2.5439,4.88924600,4.88924600,5.24368900,90.00000000,90.00000000,90.00000000
10010,CdPb2(ClO)2,2.5526999999999997,6.60843400,6.60843400,7.84118621,58.99367659,58.99367659,34.26522544
10011,Ca3ZnSe4,2.5339,6.38183500,6.38183500,6.38183500,90.00000000,90.00000000,90.00000000
10012,Ca2H6Ru,2.5372000000000003,5.10424606,5.10424606,5.10424606,60.00000000,60.00000000,60.00000000
10013,SrS,2.5618999999999996,4.28751227,4.28751227,4.28751227,60.00000000,60.00000000,60.00000000
10014,B2(CN2)3,2.5667,8.88248044,4.31898870,8.92524060,90.95465867,89.93202929,90.13884034
10015,Zr3N2O3,2.5487,5.72850484,5.72850484,10.74853232,89.68661660,89.68661660,41.87573831
10016,V2OF8,2.5347,5.38234700,9.10916500,14.97065286,75.50820702,90.00000000,90.00000000
10017,Zn(PO2)2,2.5759,5.51798100,6.68994600,7.65365400,90.00000000,90.00000000,90.00000000
10018,Rb2AgPS4,2.5690999999999997,6.72437100,7.03628932,11.14737588,95.62048203,106.98833572,111.13388023
10019,K2NaSbBr6,2.5732,8.06385563,8.06385563,8.06385563,60.00000000,60.00000000,60.00000000
10020,Na3TmCl6,2.5404999999999998,7.46390098,7.46390098,7.46390098,60.00000000,60.00000000,60.00000000
10021,K2TlGaCl6,2.5438,7.65603887,7.65603887,7.65603887,60.00000000,60.00000000,60.00000000
10022,K2PrAgF6,2.5595,6.68182533,6.68182533,6.68182533,60.00000000,60.00000000,60.00000000
10023,Cs2RbIrF6,2.5533,6.68170936,6.68170936,6.68170936,60.00000000,60.00000000,60.00000000
10024,K2DyCuCl6,2.5423999999999998,7.31672095,7.31672095,7.31672095,60.00000000,60.00000000,60.00000000
10025,Cs2NaSbBr6,2.5669999999999997,8.16949739,8.16949739,8.16949739,60.00000000,60.00000000,60.00000000
10026,K2ScInCl6,2.5779,7.79486656,7.79486656,7.79486656,60.00000000,60.00000000,60.00000000
10027,Cs2RbSbI6,2.5506,9.22710851,9.22710851,9.22710851,60.00000000,60.00000000,60.00000000
10028,Cs3TlCl6,2.5496999999999996,8.31616265,8.31616265,8.31616265,60.00000000,60.00000000,60.00000000
10029,Cs2NaAsBr6,2.5774,7.98972680,7.98972680,7.98972680,60.00000000,60.00000000,60.00000000
10030,Cs2YCuCl6,2.5659999999999994,7.45498861,7.45498861,7.45498861,60.00000000,60.00000000,60.00000000
10031,Na3SbBr6,2.5753,8.00226522,8.00226522,8.00226522,60.00000000,60.00000000,60.00000000
10032,Rb2YAgI6,2.5563000000000002,8.58174912,8.58174912,8.58174912,60.00000000,60.00000000,60.00000000
10033,Rb3TlCl6,2.5349,8.08245678,8.08245678,8.08245678,60.00000000,60.00000000,60.00000000
10034,Rb3SbI6,2.5604999999999998,9.18703253,9.18703253,9.18703253,60.00000000,60.00000000,60.00000000
10035,K2RbSbI6,2.5635,9.15935778,9.15935778,9.15935778,60.00000000,60.00000000,60.00000000
10036,Rb2NaSbBr6,2.5713999999999997,8.10520865,8.10520865,8.10520865,60.00000000,60.00000000,60.00000000
10037,RbGeCl3,2.5696,7.43749700,8.02893400,10.93008000,90.00000000,90.00000000,90.00000000
10038,K3Bi2I9,2.5425,8.43476678,8.43476678,21.76572310,86.14543430,86.14543430,119.30748466
10039,Li6Zn3(PS4)4,2.5348,9.33523410,11.60831412,23.14778419,89.91307795,90.05461148,90.00801212
10040,K2Zn3S4,2.5702,9.14667974,9.14667974,9.14667974,143.15318681,105.95409720,85.69252498
10041,Li10Zn(PS4)4,2.5761,7.90147600,12.41924800,17.94927604,46.27863119,90.00000000,90.00000000
10042,Li10Zn(PS4)4,2.5379000000000005,10.23602802,10.24590772,13.99467009,107.26757671,106.97481142,101.16577156
10043,SrLaFeSnO6,2.5582000000000003,8.06351425,8.08721944,8.08171926,90.53587572,90.10491822,90.11195044
10044,Sr3La4O9,2.5553999999999997,7.36437300,9.78151672,10.38960404,76.92197816,71.44589084,74.58469234
10045,Na2LiFePCO7,2.5461,6.74927700,8.79545383,10.28040231,92.48256235,90.14169576,90.71132870
10046,MgSnO3,2.5630999999999995,5.66371264,5.66371264,5.66371229,56.24663943,56.24663943,56.24663549
10047,Li4Mn2Fe3Sn(PO4)6,2.5402000000000005,8.58928000,8.67178212,8.69216645,62.84918351,63.34249557,63.38517803
10048,HoCuO2,2.5433000000000003,3.53243436,3.53243436,11.50141200,90.00000000,90.00000000,120.00000679
10049,Cs3GaO3,2.567,7.35643299,7.35643299,7.35649252,81.48865357,81.48865357,115.37129053
10050,Ba3Y2O6,2.5362999999999998,11.34688668,11.34688668,11.34688668,157.56415343,157.56415343,31.93866590
10051,Ba4Lu6O13,2.5759,12.55348031,12.55348031,12.55348031,152.41159014,121.95989797,65.44145328
10052,K3ReC4(N2O)2,2.5385,6.98929983,8.50348537,7.38159459,103.18070899,112.70574625,107.16230923