,pretty_formula,bandgap,cell_length_a,cell_lentgh_b,cell_lentgh_c,cell_angle_alpha,cell_angle_beta,cell_angle_gamma
2422,V6O5F19,1.9637000000000002,5.35724500,5.49728866,14.92364534,100.56613558,89.65687162,92.05213903
2423,LiVF5,1.9679,5.77766100,7.71136500,17.28556700,90.00000000,90.00000000,90.00000000
2424,Li2AgF3,1.9705,5.94360993,5.94360993,5.28778864,82.14551319,82.14551319,127.38987753
2425,Li2AgF3,1.9474,2.87380400,7.19616700,14.70573300,90.00000000,90.00000000,90.00000000
2426,Na3V2(PO4)3,1.9512999999999998,9.01309100,8.87166400,15.44046625,55.32587763,90.00000000,90.00000000
2427,Li8Co3NiO8,1.9618999999999998,5.33016800,5.37879700,7.02039320,89.85261021,89.82979511,89.99862587
2428,Li2VF6,1.9707999999999999,8.70751132,8.56498330,10.21038714,85.60554808,93.76841361,118.21770592
2429,Li2CrF4,1.9655999999999998,4.08069500,8.85254700,8.94242350,87.69929134,90.00000000,90.00000000
2430,V6O5F19,1.9467,5.37477300,5.51959854,14.72553937,100.67000918,89.63774200,92.34100118
2431,Ce3Th4O14,1.9668,6.80592364,6.80592364,8.78923602,82.59189448,82.59189448,48.20642008
2432,Li12VNi3P4(CO7)4,1.9476000000000004,6.48830300,8.36412900,10.01529899,84.83114797,90.00000000,90.00000000
2433,LiVF5,1.9594,6.24420100,6.38413300,9.04962300,90.00000000,90.00000000,90.00000000
2434,Na2FePCO7,1.9457999999999998,6.53492300,8.95327000,10.47406207,89.75332361,90.00000000,90.00000000
2435,HoInO3,1.9695,6.33976428,6.33976428,12.33347300,90.00000000,90.00000000,120.00000291
2436,V2SO8,1.959,5.90249500,10.76468700,13.05613700,90.00000000,90.00000000,90.00000000
2437,Li2FePCO7,1.9703,6.49056900,8.34698300,10.19444289,85.00471222,90.00000000,90.00000000
2438,Li4V2Si(PO6)2,1.9478,8.49436464,8.49436464,8.51281819,63.92268683,63.92268683,63.97570357
2439,LiAlCrO3,1.9734000000000003,5.68468200,5.78789682,5.78893467,62.20553610,61.50028033,61.07177930
2440,Li3AlCrO5,1.9658999999999998,4.96340700,5.42206600,16.07805300,90.00000000,90.00000000,90.00000000
2441,Li2MnAl2O6,1.9527999999999999,4.96762900,4.91941804,10.15310500,90.00095308,90.00267536,59.67520129
2442,Li3FeO3,1.9602,5.88602600,5.90474000,8.42948800,90.00000000,90.00000000,90.00000000
2443,VPO5,1.9515000000000002,6.23487000,10.61502900,12.58010800,90.00000000,90.00000000,90.00000000
2444,Mn(IO3)2,1.9549000000000003,5.46038600,6.83179000,14.96534600,90.00000000,90.00000000,90.00000000
2445,Li3AlCoO4,1.9464,10.11567982,10.11567982,10.11567982,116.75850753,116.75850753,95.71256370
2446,ErInO3,1.9574000000000003,6.32568310,6.32568310,12.27734900,90.00000000,90.00000000,119.99999058
2447,Y2W2O9,1.9732999999999998,5.37801100,5.49375300,23.76542100,90.00000000,90.00000000,90.00000000
2448,Li2VSiCO7,1.9631000000000003,6.32884600,10.22271934,8.53819716,86.61480469,90.00038453,89.99999885
2449,La20S29O,1.9464999999999995,15.05830768,15.05830768,15.05830768,117.83968447,117.83968447,93.78436283
2450,Ta2Co4O9,1.9518999999999997,5.19834900,8.94225206,14.56418926,89.99536070,89.99029478,89.99356065
2451,Li3BiS3,1.9689999999999999,8.13921300,8.13921300,8.13921300,90.00000000,90.00000000,90.00000000
2452,Li2V(Si2O5)3,1.9506000000000001,11.06981388,11.06981388,10.01758900,90.00000000,90.00000000,99.56172733
2453,Li2Ti3FeO8,1.9461,8.51397200,8.51464959,8.51715627,89.78794101,89.80555274,89.94048125
2454,Na6Sn2O7,1.9620000000000002,6.26980091,6.26980091,12.33010895,77.95345924,77.95345924,90.50020996
2455,CdSeO4,1.945,5.23560900,7.44616900,9.64281500,90.00000000,90.00000000,90.00000000
2456,Hf2N2O,1.9601999999999995,8.71738700,8.72681682,8.73169289,109.37308384,109.31684568,109.41618892
2457,Na5GdO4,1.9634999999999998,15.08398300,15.08398300,5.54635700,90.00000000,90.00000000,90.00000000
2458,Hf2N2O,1.9785999999999992,8.72885200,8.73383012,8.73677061,109.50610214,109.43499276,109.38351099
2459,Li3Cr3(PO4)4,1.9752,11.30197500,6.22551300,8.47123379,78.35414337,90.00000000,90.00000000
2460,Li2FeOF3,1.9779000000000002,5.90275275,10.40888442,5.94934314,106.05441129,119.74172665,73.52902009
2461,Ta2CrNO5,1.9566,4.75062800,9.50949900,9.26020500,89.99997558,89.99999381,89.99927667
2462,Li2Fe3O3F5,1.9667000000000001,5.99859697,5.99859697,6.10520301,59.59680355,59.59680355,59.38836938
2463,Na8SnO6,1.968,6.77260671,6.77260671,6.77260687,55.93082177,55.93082177,55.93082803
2464,LiCrP2O7,1.9636999999999998,8.44954500,6.99941500,9.18720251,67.79545209,90.00000000,90.00000000
2465,V6O5F19,1.9682,5.32095000,5.46272593,14.73463852,79.50621531,89.84437000,89.42307052
2466,V6O5F19,1.9613999999999998,5.37556700,5.53360480,14.85943603,100.51402801,89.61164723,92.54004249
2467,PrI3,1.9553,11.17099436,11.17099436,4.15129000,90.00000000,90.00000000,120.00000211
2468,YbTiO3,1.9648999999999996,3.85308100,3.85308100,3.85308100,90.00000000,90.00000000,90.00000000
2469,Ca2SnS4,1.9707999999999997,6.99577400,6.83109200,7.79261126,72.96690595,90.00000000,90.00000000
2470,Li2VF6,1.9564,5.02133500,5.12966600,15.08974918,83.61255973,90.00000000,90.00000000
2471,KNaTe,1.9493,5.15114600,8.64682500,9.38934000,90.00000000,90.00000000,90.00000000
2472,SeS2(NO)2,1.9521,8.72589346,8.72589346,7.85704359,84.98323439,84.98323439,31.40866693
2473,La4Au2O9,1.9691,6.37924900,12.19703100,12.20597300,90.00000000,90.00000000,90.00000000
2474,K2NbCuS4,1.9647,13.50841932,12.06708849,7.24178097,84.88546082,62.84117037,32.27336881
2475,Li3H3N2,1.9597000000000002,3.46047900,3.72946300,5.14346119,88.17387607,90.00000000,90.00000000
2476,Tl2(IO3)3,1.9691,7.21881500,7.24958943,10.70029334,86.80572835,107.04472100,107.76317826
2477,GaS,1.9484,8.94945453,8.94945453,8.94945391,23.44788308,23.44788308,23.44787746
2478,TaAgO3,1.9510999999999998,5.65097476,5.65097476,5.65097556,59.12014481,59.12014481,59.12013817
2479,Rb2NaTlCl6,1.9723,7.60712688,7.60712688,7.60712688,60.00000000,60.00000000,60.00000000
2480,H2C3,1.9743000000000002,7.37220312,7.37220312,3.97218403,81.73568763,81.73568763,107.17345534
2481,H6PbCBr3N,1.9688,8.58699900,8.59140362,12.20770988,89.43088486,89.52247293,89.92370701
2482,ZnCr2(PO4)2,1.9589000000000003,9.39165489,9.39165489,16.31060915,60.27277824,60.27277824,31.55553043
2483,Ba2Mo2F11,1.9493,8.03345825,8.03345825,14.64604800,90.00000000,90.00000000,120.00000208
2484,Ba2CaV2(P2O9)2,1.9585000000000001,7.12031100,7.36892400,14.76335702,76.69234072,90.00000000,90.00000000
2485,SrZnP2WO8,1.9531,5.48851600,7.62134074,9.53067431,104.94134602,103.40453126,105.94248486
2486,VPO5,1.9688,5.18290640,5.18290640,7.51004094,74.73604807,74.73604807,97.11206105
2487,CaVF4,1.9470999999999998,6.51901544,6.51901544,5.47213596,69.23955665,69.23955665,49.03422013
2488,YWF5,1.9703,5.96745672,5.96745672,5.96745672,137.52526531,108.42442252,86.92583020
2489,MgSn3(P2O7)2,1.9517000000000002,7.89931300,8.06088800,10.20856389,74.24281070,90.00000000,90.00000000
2490,ZnFeAsO5,1.9486999999999999,8.11993100,6.20031500,8.41819228,89.95780165,90.00000000,90.00000000
2491,Ca2SnWO6,1.9675000000000002,5.69962359,5.70524783,8.12607664,90.79899885,135.15261893,119.46467870
2492,YSn(WO4)2,1.9699999999999998,5.22050100,6.16680576,6.52473351,117.06609745,109.85574080,87.69867003
2493,Mo3(AsO4)4,1.9565,4.94292000,8.76611800,15.86774638,81.06444099,90.00000000,90.00000000
2494,V(WO4)2,1.9508,4.94866100,5.25845533,6.99739869,109.22394597,91.19254338,104.82563918
2495,MgV2CoO7,1.9581,14.17250700,6.59104800,11.83939754,78.99053204,90.00000000,90.00000000
2496,MgCoAs2O7,1.9598,8.65191600,7.31030200,9.70597541,66.12228226,90.00000000,90.00000000
2497,VZnNiP2O9,1.955,6.25504800,7.36822185,14.16939655,89.94567653,89.99954995,90.00222297
2498,MgGe2WO6,1.9674000000000003,8.37635066,8.37635066,5.03255179,83.29109496,83.29109496,64.32604236
2499,Ti2P2O9,1.9456000000000002,6.34027300,7.82757300,14.04445200,90.00000000,90.00000000,90.00000000
2500,SiO2,1.9997000000000007,3.24055158,3.24055158,3.24055158,60.00000000,60.00000000,60.00000000
2501,CaC2,2.0147999999999997,3.53789617,3.53789617,3.53789642,86.90081627,86.90081627,86.90082215
2502,ZrZnN2,2.0033,3.31133145,3.31133145,5.33678000,90.00000000,90.00000000,119.99998906
2503,Ce3ZrO8,2.0124000000000004,7.66242332,7.66242332,5.43930022,89.83533497,89.83533497,90.37486617
2504,Ce5Zr3O16,2.0072,7.60421824,7.60421824,5.40638700,90.00000000,90.00000000,90.54710969
2505,CeZrO4,2.0037000000000003,5.38765100,5.38765100,5.30327500,90.00000000,90.00000000,90.00000000
2506,Li2SiSnS4,1.9994,5.98892434,5.98892434,5.98892434,114.60512513,114.60512513,99.62946335
2507,Cd(AgI2)2,2.0050000000000003,7.97838953,7.97838953,7.97838953,131.29096965,131.29096965,71.35119519
2508,KRbMg14O15,2.014,4.16908700,8.57593800,10.42442100,90.00000000,90.00000000,90.00000000
2509,Mg14MnNiO16,1.9810999999999996,8.54499600,8.54499600,4.27787500,90.00000000,90.00000000,90.00000000
2510,Mg30VFeO32,1.9946000000000002,8.54263100,8.54263100,8.53333600,90.00000000,90.00000000,90.00000000
2511,CaMg30VO32,2.0027,8.57429700,8.57429700,8.57147500,90.00000000,90.00000000,90.00000000
2512,Mg30MnVO32,1.9947000000000008,8.54150600,8.54150600,8.54113700,90.00000000,90.00000000,90.00000000
2513,Mg30BWO32,1.9989,8.56867200,8.56867200,8.56012900,90.00000000,90.00000000,90.00000000
2514,LaMg30BO32,1.9857999999999993,8.63240600,8.63240600,8.63185700,90.00000000,90.00000000,90.00000000
2515,KMg30BO31,1.9835000000000003,8.42552300,8.58459100,8.77514600,90.00000000,90.00000000,90.00000000
2516,La5Sm3Cr7FeO24,1.9836,7.84495942,7.84495942,7.84436803,89.99621929,89.99621929,89.99663283
2517,MgSe,1.9791999999999996,3.89681739,3.89681739,3.89681739,60.00000000,60.00000000,60.00000000
2518,CsAuS,1.9921,5.61209868,5.61209868,7.00507200,90.00000000,90.00000000,101.08374635
2519,RbPrSe2,1.9798000000000002,8.42588452,8.42588452,8.42588508,30.37942725,30.37942725,30.37942843
2520,RbTbSe2,2.01,8.36921795,8.36921795,8.36921791,29.51012866,29.51012866,29.51012078
2521,Ba2LaBiO6,1.9995999999999996,6.27169496,6.27169496,6.32250360,60.20132591,60.20132591,60.18673003
2522,La2ZrNiO6,1.9916,5.73111319,5.73111319,5.73111319,60.00000000,60.00000000,60.00000000
2523,Sn4P2O9,2.0134000000000003,7.02746500,9.01068332,9.20339215,76.77166378,79.59564835,68.38093030
2524,LiFeP2O7,2.0048,4.81360900,8.03543235,8.70689039,107.54340853,90.30490937,107.04263150
2525,ZnS2,2.0035,6.00039600,6.00039600,6.00039600,90.00000000,90.00000000,90.00000000
2526,INO4,2.0086999999999997,9.54876385,9.54876385,9.54876385,152.73348905,152.73348905,38.94312131
2527,MgSe2,1.9935,6.52003400,6.52003400,6.52003400,90.00000000,90.00000000,90.00000000
2528,RbCu2I3,1.9946000000000002,8.82324645,8.82324645,5.64079800,90.00000000,90.00000000,102.88287492
2529,KV2Fe(AgO4)2,1.9969000000000001,5.53729621,14.94662708,5.53785737,89.98937560,59.97243519,89.99287926
2530,NaLi2RhF6,2.0071000000000003,5.85921831,5.85921831,5.85921831,60.00000000,60.00000000,60.00000000
2531,K2TlRhF6,2.0029,6.49435294,6.49435294,6.49435294,60.00000000,60.00000000,60.00000000
2532,K2NaTlCl6,2.0027,7.55612326,7.55612326,7.55612326,60.00000000,60.00000000,60.00000000
2533,Cs2NdCuI6,1.9946,8.52031569,8.52031569,8.52031569,60.00000000,60.00000000,60.00000000
2534,Cs2InGaCl6,2.0109,7.73329877,7.73329877,7.73329877,60.00000000,60.00000000,60.00000000
2535,Rb2TlAsCl6,1.9956,7.82124164,7.82124164,7.82124164,60.00000000,60.00000000,60.00000000
2536,Rb2TlRhF6,1.9971,6.54864601,6.54864601,6.54864601,60.00000000,60.00000000,60.00000000
2537,Rb2TlSbCl6,1.9851,8.05400139,8.05400139,8.05400139,60.00000000,60.00000000,60.00000000
2538,S3N2,1.9808999999999999,4.29763400,8.73630300,24.41980400,90.00000000,90.00000000,90.00000000
2539,Sr9ThCl22,2.0052000000000003,18.11783812,18.11783812,7.04262100,90.00000000,90.00000000,157.64786189
2540,PrSO,1.9823999999999997,4.06969977,4.06969977,7.03571247,82.16327528,82.16327528,90.17357704
2541,LiMn2O2F3,1.9852999999999998,4.99551200,6.10009323,6.87220062,107.70017174,89.99899449,114.17382680
2542,Li7Fe6(SiO4)6,2.0027999999999997,8.62546600,8.67192291,8.77327615,107.86241073,108.14527618,106.84280542
2543,Li3Fe2(SiO4)2,1.9979000000000002,10.68895100,8.27068900,8.32796395,75.19185958,90.00000000,90.00000000
2544,Fe4OF7,2.0019,5.80536700,5.81046426,10.14560087,99.61480342,100.96095138,111.94818172
2545,Fe10OF19,1.9979000000000002,4.80959000,5.83016790,13.81570729,80.20827702,89.78845351,89.81046714
2546,Rb2V3O8,1.9836,9.07730000,9.07730000,5.70252100,90.00000000,90.00000000,90.00000000
2547,Li2V2P2O11,2.0128000000000004,6.21032700,7.86032300,10.16880200,90.00000000,90.00000000,90.00000000
2548,BNF4,1.9834,5.75613700,7.78455400,7.88318400,90.00000000,90.00000000,90.00000000
2549,AgCO2,1.9915999999999998,7.03901800,3.25029800,9.54601817,80.99164569,90.00000000,90.00000000
2550,AlPO4,1.9843000000000002,8.10360700,9.53277632,13.55543257,90.65064270,93.79003513,108.05736772
2551,TmCrO3,2.003399999999999,3.83366300,3.83366300,3.83366300,90.00000000,90.00000000,90.00000000
2552,Ba2P7I,1.9865999999999997,7.03890400,6.46041200,12.24942551,84.11234125,90.00000000,90.00000000
2553,NaPS3,2.0008,7.89050100,6.73970100,9.13262393,89.78065042,90.00000000,90.00000000
2554,As2S3,2.0010000000000003,5.87859500,9.11789662,11.03338181,100.94520550,103.21453344,89.97885474
2555,Ba3GdInS6,1.9957000000000003,8.47182117,8.47182117,8.47182106,92.69302829,92.69302829,92.69302841
2556,Rb2MoS3O,1.9802000000000002,7.32036000,9.61002000,11.91310600,90.00000000,90.00000000,90.00000000
2557,La3SiN4F,1.979000000000001,6.93997900,7.73826700,9.97053400,90.00000000,90.00000000,90.00000000
2558,Zn3H24C12(Br4O3)2,1.9904,9.23325900,11.61298338,15.67002411,103.26489156,91.68670042,106.94219619
2559,Ba3TaN3Cl2,1.9944000000000002,15.23975614,15.23975614,6.46332300,90.00000000,90.00000000,120.00000059
2560,La8Sb2S15,2.0120000000000005,15.09935611,15.09935611,15.09935611,115.83762644,115.83762644,97.37457333
2561,VPH5O7,2.0119,7.30552600,7.69331600,9.64541010,84.59732259,90.00000000,90.00000000
2562,UH18C7(N2O3)4,2.0133,7.56238300,9.93677251,14.62504424,73.11467458,78.37270918,71.55272695
2563,CsSb2PO8,1.9821000000000002,9.95007415,9.95007415,13.93706468,61.89952428,61.89952428,43.00747163
2564,BrN3,2.011,10.76274360,10.76274360,10.76274360,98.31809484,98.31809484,135.28885183
2565,ZnS,1.9938999999999998,3.87388143,3.87388143,56.39201845,88.03163020,88.03163020,59.99999814
2566,Mo3Se(NO6)2,2.0145,7.31315970,7.31315970,14.10192000,90.00000000,90.00000000,119.99999732
2567,ZnS,1.9860000000000002,3.87732380,3.87732380,56.55532456,88.03557084,88.03557084,60.00001337
2568,SiC,1.9914999999999985,3.09453995,3.09453995,43.05435445,87.94048382,87.94048382,59.99999253
2569,ZnS,1.9857,3.87486883,3.87486883,56.55700173,88.03687396,88.03687396,59.99999805
2570,VP3(HO)6,1.9864000000000002,12.00821700,11.69814100,15.23776654,50.01291562,90.00000000,90.00000000
2571,ZnS,1.9928000000000001,3.87402013,3.87402013,56.38957166,88.03147425,88.03147425,59.99999811
2572,K3AsS4,2.0106,9.25560800,9.52184800,10.81511500,90.00000000,90.00000000,90.00000000
2573,ZnS,1.9819,3.87544099,3.87544099,56.54702239,88.03623734,88.03623734,59.99999812
2574,AgH6C2N5O4,1.9928,8.89712600,9.18628200,11.06388964,61.45143196,90.00000000,90.00000000
2575,CsLu7S11,2.0075000000000003,10.18480973,10.18480973,18.86088700,90.00000000,90.00000000,97.51531827
2576,ZnS,1.9813000000000003,3.87554684,3.87554684,56.54881072,88.03624581,88.03624581,59.99999798
2577,NiPH15O11,1.9958999999999998,6.12539700,7.12437000,11.31313800,90.00000000,90.00000000,90.00000000
2578,AgB10P2H40C15NCl2O3,1.9977,10.70297504,14.41414806,22.67899910,108.20178026,90.00000000,90.00000000
2579,Ni9Te5(PbO5)6,1.9839000000000002,10.43912933,10.43912933,13.71275300,90.00000000,90.00000000,119.99999576
2580,Ba4MnIn2(S3F2)2,2.0034,6.45716300,13.24601500,19.07975000,90.00000000,90.00000000,90.00000000
2581,NaFe2(Si2O5)3,1.9888,11.36391185,11.36391185,10.20729200,90.00000000,90.00000000,100.28031503
2582,UCd(MoO4)4,2.009,6.71963100,8.26068400,14.22428111,54.96015254,90.00000000,90.00000000
2583,RbSbCl6,1.9851999999999999,7.08021526,7.08021526,12.67804509,79.49769557,79.49769557,55.91306329
2584,Na2ReO3,1.9945,5.63981383,5.63981383,12.33150900,90.00000000,90.00000000,119.99999800
2585,Na2ZrFeSi2O8F,1.9930999999999999,9.96293500,7.20004000,10.82372426,72.00920996,90.00000000,90.00000000
2586,Na3Mg2(WO4)3,1.9850999999999996,9.17690392,9.17690392,7.26668814,74.61426074,74.61426074,95.68002876
2587,Na3MnP8O23,2.0079000000000002,12.14942600,12.14942600,12.14942600,90.00000000,90.00000000,90.00000000
2588,Mn6Te5O16,1.9855999999999998,10.71596206,11.55576465,13.43799685,90.00000000,90.00000000,90.00000000
2589,KSbCl6,1.9967000000000001,6.97415692,6.97415692,12.44483065,79.67779929,79.67779929,56.76268529
2590,KPr(PSe3)2,2.0113,7.89780400,11.97874600,12.57355096,70.47683589,90.00000000,90.00000000
2591,H6C(N3O)2,1.9859,10.48922290,10.48922290,15.12246873,56.55264457,56.55264457,24.57608132
2592,FePH3CO7,2.0117000000000003,5.11322000,7.71844592,7.78950753,96.67254145,107.91738729,102.36712210
2593,CaH6PtO6,2.01,5.98450444,5.98450444,10.41089700,90.00000000,90.00000000,120.00000485
2594,CaZnF2,1.9966,7.49563452,7.49563452,7.49563452,60.00000000,60.00000000,60.00000000
2595,Ca3AsI3,1.9928,10.85193744,10.85193744,10.85193744,109.47122063,109.47122063,109.47122063
2596,BaPb3O4,2.0005,8.00435768,8.00435768,6.34477100,90.00000000,90.00000000,119.99999736
2597,BaMnVF7,1.9909999999999999,7.49271381,7.49271381,15.20900551,89.98607958,89.98607958,41.61878446
2598,AlNiAg2F7,2.005,7.34834657,7.34834657,7.34834657,120.57152525,116.91942801,92.21499578
2599,Ba(SO2)4,1.9988000000000001,8.59174900,10.95979900,11.25637300,90.00000000,90.00000000,90.00000000
2600,V4Cd3(PO4)6,1.9981,6.57563700,8.90426686,8.93000435,89.85625565,108.06505898,107.70931110
2601,VSi3Bi61O100,2.0010000000000003,14.59092978,14.59092978,17.09863474,64.74362072,90.00000000,60.00000000
2602,BaSnS2,1.9962999999999997,12.51821300,6.18913900,6.35582889,85.27534390,90.00000000,90.00000000
2603,Sr4ZrTi3O12,1.98,4.03729300,5.65726500,11.32376300,90.00000000,90.00000000,90.00000000
2604,Sr2CaTi3O9,1.9867,23.53594700,5.54060800,5.54585370,89.92539779,90.00000000,90.00000000
2605,SbXeO2F7,2.0035,9.22714500,9.23484100,9.24449296,92.57681349,92.67328122,92.48551719
2606,Rb3MgNb5O15,2.0065999999999997,6.63927700,11.71573800,19.65807600,90.00000000,90.00000000,90.00000000
2607,NbFe(PbO3)2,1.9832,5.72771342,5.72771342,5.72771342,60.00000000,60.00000000,60.00000000
2608,NaCoO2,2.0095,5.74343653,5.74343653,5.74343614,30.47616507,30.47616507,30.47615493
2609,Na3Mn2BO6,1.9819,5.55983358,5.88225767,9.43259317,78.56476099,87.72728019,74.91879211
2610,Na2La2PtO6,1.992,6.72190679,6.72190679,6.75362336,89.06929572,89.06929572,89.52186134
2611,Na2MnVF7,2.0147,7.60578833,7.60578833,18.48804000,90.00000000,90.00000000,120.00000283
2612,MgFe(SiO3)2,2.0138,4.87776004,4.87776004,6.74118700,90.00000000,90.00000000,147.57902563
2613,La6Zn(SiS7)2,1.9880000000000004,10.37303180,10.37303180,5.77586800,90.00000000,90.00000000,119.99999875
2614,La2C(NO)2,2.0052000000000003,6.95717289,6.89797399,4.08605866,73.64260816,72.05617698,34.30121486
2615,KCNO,2.0084,6.14279449,5.65996963,5.58921040,66.19159983,57.45712413,56.35127603
2616,La6Mg(GeS7)2,2.0051000000000005,10.41816924,10.41816924,5.83830200,90.00000000,90.00000000,119.99999516
2617,KMgMn2AlGe3(O5F)2,1.9956,5.55972907,5.55562579,10.70177130,84.94723815,84.71320872,119.87556530
2618,KCa2Nb3O10,1.9878000000000002,15.09809151,15.09809151,7.87209800,90.00000000,90.00000000,164.96084529
2619,KCoP2H5O9,2.0119,6.53624100,7.84686500,15.64876900,90.00000000,90.00000000,90.00000000
2620,Ho2CdS4,2.0148,8.02636592,8.02636592,8.02636592,120.37883879,120.15269565,89.54040325
2621,K3TaNbCu3S8,1.987,12.24606874,12.24606874,14.48548198,60.50630743,60.50630743,26.37237339
2622,Ce2ThO6,1.9920999999999998,6.76126619,6.76126619,6.76126619,146.41805602,131.80179978,60.02305519
2623,Ce4ZrO10,2.0039,15.68822488,15.68822488,15.68822429,14.04142848,14.04142848,14.04142808
2624,Ce4ThO10,1.9849999999999994,14.00165921,14.00165921,14.00165921,164.04905976,164.04905976,22.63210776
2625,BaSrMgTeO6,1.9918,5.74800880,5.74800880,5.74800880,60.00000000,60.00000000,60.00000000