,pretty_formula,bandgap,cell_length_a,cell_lentgh_b,cell_lentgh_c,cell_angle_alpha,cell_angle_beta,cell_angle_gamma
5927,LiVF4,2.2023,4.75222400,6.28182700,9.96829700,90.00000000,90.00000000,90.00000000
5928,Gd3AsO7,2.2214,7.35617900,7.37866000,10.54630700,90.00000000,90.00000000,90.00000000
5929,ScInO3,2.1982000000000004,3.46640047,3.46640047,12.74871100,90.00000000,90.00000000,120.00000893
5930,Li2FePCO7,2.2043,6.49902000,9.37369800,10.19769850,62.46891459,90.00000000,90.00000000
5931,Li3Al2VO6,2.2165000000000004,10.19681000,5.88392600,9.99008722,54.98331121,90.00000000,90.00000000
5932,LiTiFeO4,2.1957000000000004,2.99951500,9.96216200,10.41519100,90.00000000,90.00000000,90.00000000
5933,Li2FeAsCO7,2.2031,5.18065181,8.66636843,13.22067119,89.98503534,90.01154596,86.52928368
5934,Li3FeBAsO7,2.1980000000000004,6.59841800,5.09451200,8.57681324,86.18171478,90.00000000,90.00000000
5935,Li2Cr2O7,2.2008,6.61405900,6.61405900,12.45546400,90.00000000,90.00000000,90.00000000
5936,Y2TeO6,2.2226999999999997,5.45305400,7.71912900,11.54148521,76.08389209,90.00000000,90.00000000
5937,Fe5Sb(PO4)6,2.1937999999999995,8.57281109,8.57281109,8.57281069,60.90910713,60.90910713,60.90910439
5938,Li4Cr2C4SO16,2.2057,9.64607515,9.55069831,9.25610865,61.69129796,60.65682064,57.65188140
5939,Ba3LaI9,2.2281999999999993,8.08942900,8.69131700,33.89918334,87.91646455,90.00000000,90.00000000
5940,Na2CoCSO7,2.2283,5.27955161,11.31335183,11.29316007,106.68217013,91.58561731,88.43534022
5941,ZnCrO4,2.1917,6.84180147,6.84180147,6.84744046,79.48589812,79.48589812,85.53125296
5942,Li4Cr3P4O15,2.2195000000000005,6.42295700,10.57326400,18.16280600,90.00000000,90.00000000,90.00000000
5943,LiV(OF)2,2.2158,3.52309000,6.25230100,6.78319030,70.22162323,90.00000000,90.00000000
5944,Li3Fe2(PO4)3,2.2271,9.79586287,9.79586287,9.75104519,86.42361485,86.42361485,85.58237064
5945,KNb2PO8,2.2181,8.52236369,8.52236369,8.52236338,104.13103007,104.13103007,104.13102101
5946,Co(IO3)2,2.1938,5.37153700,5.65941900,17.74627800,90.00000000,90.00000000,90.00000000
5947,Hg2W2O7,2.2134,7.35538643,7.35538643,14.94653890,76.65228349,76.65228349,62.58662069
5948,Ba4Ti11O26,2.2143,10.02808846,10.02808846,16.62102509,67.76692849,67.76692849,46.17982174
5949,Li5Ti6FeO16,2.1950000000000003,5.97180000,5.95629400,8.45482215,89.67128089,90.00000000,90.00000000
5950,Li8Fe3Sn(PO4)6,2.2156000000000002,8.85076992,8.85076992,8.85077108,61.67365277,61.67365277,61.67365178
5951,Ti(SO4)2,2.2235,8.90781193,8.90781193,8.90781174,56.08480315,56.08480315,56.08480590
5952,Hf2N2O,2.2215999999999996,5.48004051,5.48004051,14.61213032,89.93815551,89.93815551,59.76883754
5953,LaTa2NO5,2.2212999999999994,5.52936300,7.74117530,11.30557777,89.96804612,89.99773971,89.98393889
5954,Li2FeO2F,2.2028999999999996,5.21167825,5.21167825,5.14627272,81.07450822,81.07450822,120.69108414
5955,LiFeF3,2.2228,5.80141300,5.81477765,23.26951837,89.96246625,89.95894415,60.45980752
5956,LaTa2NO5,2.224,5.53339800,7.73470700,11.31170876,89.94742348,90.00000000,90.00000000
5957,Li2V3F8,2.2001,6.21985488,6.21985488,6.21985504,60.60602374,60.60602374,60.60602600
5958,K8Al2O7,2.2214,12.24139000,9.55706600,11.25948812,72.03422503,90.00000000,90.00000000
5959,LiVBO3,2.2238,4.62137782,8.54082664,6.32091211,101.34189183,94.04189242,88.62339196
5960,Li2FeBO4,2.2217,4.76851600,8.86679800,14.28088400,90.00000000,90.00000000,90.00000000
5961,V3OF11,2.2048,5.25812000,5.45826900,14.81944465,79.73350785,90.00000000,90.00000000
5962,LiVP3H8O13,2.2229,7.09546300,7.75698327,10.02503877,83.71852655,74.98147914,77.99767046
5963,Ti(SO4)2,2.2047000000000003,9.12525600,9.18215800,13.53200200,90.00000000,90.00000000,90.00000000
5964,NaLiS,2.1966,4.04041600,4.04041600,6.54949700,90.00000000,90.00000000,90.00000000
5965,FeH10N2Cl5O,2.1988,7.17052400,9.95730200,13.92887900,90.00000000,90.00000000,90.00000000
5966,Fe2Sb(PO4)3,2.229,8.85185899,8.85185899,8.85185909,58.79418779,58.79418779,58.79419307
5967,Li2Fe4OF8,2.2138999999999998,8.89966953,8.89966953,10.67449053,85.71374648,85.71374648,62.26936571
5968,LiVPHO5,2.2005,6.21068393,6.58042477,10.88471014,103.53139506,76.11932652,75.55312703
5969,LiVGeO5,2.2189,6.46030400,4.76175800,6.57267140,87.30817034,90.00000000,90.00000000
5970,BaSm2PdO5,2.2083000000000004,6.72815300,6.72815300,5.96205900,90.00000000,90.00000000,90.00000000
5971,Li6UO6,2.2001,5.48607263,5.48607263,5.48607263,101.03444098,101.03444098,101.03443701
5972,KLaSiSe4,2.2080999999999995,7.07046100,6.89223000,9.18392289,72.07586866,90.00000000,90.00000000
5973,HoI3,2.2173,11.75706751,11.75706751,3.97806700,90.00000000,90.00000000,119.99999726
5974,CsAsH6(CSe)2,2.2104,7.12899756,7.12899756,9.83924686,72.43488686,72.43488686,91.27600070
5975,Ca3SnS5,2.2043,8.61871800,8.71217500,12.18189500,90.00000000,90.00000000,90.00000000
5976,LiNi4(PO4)3,2.1919999999999997,8.53756422,8.53756422,6.51220682,73.83337659,73.83337659,94.82964612
5977,CrFe(PO4)2,2.1967999999999996,5.84836300,4.83731200,9.96540350,88.98505063,90.00000000,90.00000000
5978,CsK2PdF5,2.2047,7.49485200,7.49485200,6.36249500,90.00000000,90.00000000,90.00000000
5979,C3N4,2.1936000000000004,4.71589313,4.71589313,10.18895900,90.00000000,90.00000000,119.99998778
5980,Tm2Mg2O5,2.2276000000000002,3.84265400,3.84265400,7.14087100,90.00000000,90.00000000,90.00000000
5981,Tl(IO3)3,2.2066,7.60251154,7.60251154,7.60251094,82.49170577,82.49170577,82.49169705
5982,KNaMo(OF2)2,2.2296,6.07679100,6.07679100,8.46392100,90.00000000,90.00000000,90.00000000
5983,H3PbCI3NF3,2.2214,6.47663100,6.46717700,6.55914418,88.84520881,90.00000000,90.00000000
5984,YWN3,2.1968,7.38611971,7.38611971,6.31064473,73.38244040,73.38244040,81.52589512
5985,Cs2TlInBr6,2.1952,8.34514130,8.34514130,8.34514130,60.00000000,60.00000000,60.00000000
5986,TlHgF3,2.1963,6.37916200,9.05081900,13.14400300,90.00000000,90.00000000,90.00000000
5987,K2O2,2.1962,7.14375002,7.14375002,5.12295900,90.00000000,90.00000000,120.00000017
5988,VF4,2.209,5.56773743,5.57211444,6.58578785,115.59165363,115.00034446,90.00396751
5989,MgV(PO3)4,2.2111,7.33504498,7.33504498,10.23825752,66.70442696,66.70442696,70.08893635
5990,CaCr(PO3)4,2.2197000000000005,7.56403678,7.56403678,10.58184467,67.36648710,67.36648710,71.55530155
5991,CaCoF5,2.2005,10.09117700,5.57559200,7.67061272,70.03599692,90.00000000,90.00000000
5992,Zn3Co2(GeO4)3,2.1929999999999996,10.31820252,10.31820252,10.31820252,109.47122063,109.47122063,109.47122063
5993,VAsO5,2.2229,7.20450400,7.42073800,8.40051100,90.00000000,90.00000000,90.00000000
5994,Ca2YCrO5,2.2051,8.91492168,8.91492168,8.91492168,144.34075231,142.82360109,52.46273701
5995,CoW2O7,2.2234,16.10827300,7.06962500,12.01446279,77.94352317,90.00000000,90.00000000
5996,ZnNiAs2O7,2.1943,8.65943300,7.26229600,9.69107422,66.89544352,90.00000000,90.00000000
5997,SbPO5,2.2165,10.25333040,9.08209500,6.94722764,78.28713094,60.14938223,41.56348683
5998,LaZnFeSnO6,2.2267,5.65379700,5.44502200,9.58988471,55.98006022,90.00000000,90.00000000
5999,Sn2P2O9,2.2294,6.59271000,8.00266700,14.45129100,90.00000000,90.00000000,90.00000000
6000,CaZnSe2,2.2537,4.28620300,4.28620300,6.38376400,90.00000000,90.00000000,90.00000000
6001,Zn2SiO4,2.2492,4.99737300,5.10975300,10.43236100,90.00000000,90.00000000,90.00000000
6002,Zn2SiO4,2.2529000000000003,8.09005700,5.55075300,9.04815730,58.69641784,90.00000000,90.00000000
6003,Na2Zn3S4,2.2584,6.85549500,7.76559000,14.13141600,90.00000000,90.00000000,90.00000000
6004,CdIBr,2.2325,14.36987850,14.36987850,14.36987930,16.88664375,16.88664375,16.88664044
6005,Sr3B3N5,2.2443999999999997,6.37933500,6.93051986,7.54538749,78.50615705,80.23856306,87.38702440
6006,CaTiN2,2.2611,4.99694000,10.06523100,17.15265800,90.00000000,90.00000000,90.00000000
6007,Mg14ZnCdO16,2.2379,4.31675500,8.60421000,8.62557900,90.00000000,90.00000000,90.00000000
6008,Mg30CoNiO32,2.2374,8.50703100,8.50703100,8.52677500,90.00000000,90.00000000,90.00000000
6009,Mg30MnCdO32,2.2323999999999993,8.58088300,8.58088300,8.58597600,90.00000000,90.00000000,90.00000000
6010,CsMg30MnO32,2.232,8.64735800,8.64735800,8.72616200,90.00000000,90.00000000,90.00000000
6011,RbMg30WO32,2.2599,8.62794300,8.62794300,8.72731700,90.00000000,90.00000000,90.00000000
6012,RbMg30BO31,2.2391000000000005,8.58927000,8.65990800,8.69782500,90.00000000,90.00000000,90.00000000
6013,YbSe,2.2566,5.00455992,5.00455992,5.87023500,90.00000000,90.00000000,119.99999892
6014,PbS,2.2622,4.24533476,4.24533476,11.31214498,85.97736496,85.97736496,90.00011452
6015,BiI3,2.2403,12.53429500,4.16043000,7.94138272,75.63690286,90.00000000,90.00000000
6016,Ba2NaIO6,2.2419000000000002,5.98641409,5.98641409,5.98641409,60.00000000,60.00000000,60.00000000
6017,Ba2SrUO6,2.2568,6.35867611,6.35867611,6.35867611,60.00000000,60.00000000,60.00000000
6018,CsNdS2,2.2669,4.25109366,4.25109366,16.14580700,90.00000000,90.00000000,119.99999464
6019,H4C7,2.2582,11.45338300,8.91431700,15.32341416,87.47843437,90.00000000,90.00000000
6020,TbTa3O9,2.2489,8.80366648,8.80366648,9.67631679,56.94742010,56.94742010,36.89801493
6021,Rb3FeO3,2.2647999999999997,14.88762200,6.67027000,6.84946883,61.28513975,90.00000000,90.00000000
6022,NdTa3O9,2.2412,8.81985359,8.81985359,9.71605981,57.03177031,57.03177031,36.93097573
6023,BaMn2P2O9,2.2588000000000004,5.23387990,5.23387990,8.39908657,83.72115023,83.72115023,58.15122035
6024,K2Mo(SO)2,2.2416,6.79510648,6.79510648,10.05209443,62.78045287,62.78045287,63.68991274
6025,LaLuS3,2.2321999999999997,6.69348000,7.33567100,9.88471200,90.00000000,90.00000000,90.00000000
6026,K2NaBiI6,2.2588,8.76645814,8.76645814,8.76645814,60.00000000,60.00000000,60.00000000
6027,Na2AlAgF6,2.236,5.92982434,5.92982434,5.92982434,60.00000000,60.00000000,60.00000000
6028,K2RbRhF6,2.2526,6.53426770,6.53426770,6.53426770,60.00000000,60.00000000,60.00000000
6029,K2PrCuBr6,2.2645999999999997,7.88328319,7.88328319,7.88328319,60.00000000,60.00000000,60.00000000
6030,K2TbAuCl6,2.2368,7.61057332,7.61057332,7.61057332,60.00000000,60.00000000,60.00000000
6031,CsRb2RhF6,2.26,6.75803305,6.75803305,6.75803305,60.00000000,60.00000000,60.00000000
6032,K2PrAuCl6,2.2576,7.74950990,7.74950990,7.74950990,60.00000000,60.00000000,60.00000000
6033,K2NdAuCl6,2.2668999999999997,7.72625316,7.72625316,7.72625316,60.00000000,60.00000000,60.00000000
6034,K2GaAgF6,2.2432,6.14053084,6.14053084,6.14053084,60.00000000,60.00000000,60.00000000
6035,Cs2NaBiI6,2.2462999999999997,8.84930702,8.84930702,8.84930702,60.00000000,60.00000000,60.00000000
6036,Cs2YAuCl6,2.2507,7.68915126,7.68915126,7.68915126,60.00000000,60.00000000,60.00000000
6037,Cs2InSbF6,2.2370000000000005,6.89898772,6.89898772,6.89898772,60.00000000,60.00000000,60.00000000
6038,Cs2AlInBr6,2.2443999999999997,8.08785342,8.08785342,8.08785342,60.00000000,60.00000000,60.00000000
6039,Cs2PrCuBr6,2.2451,7.97753769,7.97753769,7.97753769,60.00000000,60.00000000,60.00000000
6040,Rb2PrAuCl6,2.2437,7.77866957,7.77866957,7.77866957,60.00000000,60.00000000,60.00000000
6041,Rb2NdAuCl6,2.2535,7.75123241,7.75123241,7.75123241,60.00000000,60.00000000,60.00000000
6042,K3RhF6,2.2333,6.36701856,6.36701856,6.36701856,60.00000000,60.00000000,60.00000000
6043,Rb2InSbF6,2.2558999999999996,6.81387752,6.81387752,6.81387752,60.00000000,60.00000000,60.00000000
6044,Rb2NaBiI6,2.2536,8.79875737,8.79875737,8.79875737,60.00000000,60.00000000,60.00000000
6045,K2SnS3,2.2452,6.89591100,7.62231330,8.37682296,75.57520424,72.62059746,66.58775178
6046,AuCl,2.2435,4.39589400,4.39589400,12.19636600,90.00000000,90.00000000,90.00000000
6047,Y2Si3(SnO4)3,2.2625,11.27588458,11.27588458,11.27588458,109.47122063,109.47122063,109.47122063
6048,MnZn(SiO3)2,2.244,5.40911147,6.90533274,6.90531622,87.34269835,74.96233440,74.96205594
6049,Ti(Si2O5)2,2.2489,7.43339800,7.43339800,14.95549800,90.00000000,90.00000000,90.00000000
6050,Na2TiFe(PO4)3,2.2644,8.87838340,8.88199023,17.75988949,58.99173734,58.92773423,58.91144994
6051,Na2MnPCO7,2.2519,8.46906200,8.50188984,10.32561622,108.25111309,107.18316238,103.00589922
6052,LiVF4,2.2388000000000003,6.45961611,6.45961611,5.23217272,78.96736758,78.96736758,47.54841823
6053,Li3Cr2(PO4)3,2.2661000000000002,9.10359858,9.10359858,16.36362691,65.18496721,65.18496721,58.08610828
6054,SrCrO4,2.2586,7.91239000,7.31421400,7.42910304,85.36570044,90.00000000,90.00000000
6055,CsC4S4N8O2F,2.2359999999999998,11.50638472,11.50638472,11.50638472,133.37146688,127.00040838,73.22905433
6056,CdH8(NO5)2,2.2376,15.15521436,14.38721314,6.55300774,83.83391511,70.70541479,25.46067010
6057,CoPH3O5,2.2389,9.64874959,9.64874959,9.64875004,112.71662046,112.71662046,112.71661657
6058,ScBr3,2.25,10.32274800,10.32274800,3.52049900,90.00000000,90.00000000,119.99999997
6059,Li2CdGeS4,2.2567000000000004,6.46486400,6.90565400,7.85241500,90.00000000,90.00000000,90.00000000
6060,NaNbO3,2.2327000000000004,5.61527100,5.64296100,7.87569500,90.00000000,90.00000000,90.00000000
6061,Na2Cd(GeS3)2,2.2385,7.43731759,7.43731759,11.74496727,85.48376957,85.48376957,119.93125696
6062,XeNO3F,2.2335,9.09305600,4.79103700,9.65891547,89.20171757,90.00000000,90.00000000
6063,La3AlCdS7,2.2561999999999998,10.36438551,10.36438551,6.08258800,90.00000000,90.00000000,119.99999685
6064,VIn(SeO4)2,2.2451,6.95732400,4.82675300,10.78822723,81.90497019,90.00000000,90.00000000
6065,Er2PbS4,2.2569999999999997,3.97431300,12.02677300,14.29621800,90.00000000,90.00000000,90.00000000
6066,NdMoBrO4,2.2470999999999997,7.05219800,7.51724407,11.34637093,106.19939156,106.71945991,92.45064336
6067,Al2(PS3)3,2.2363000000000004,10.27667692,10.27667692,7.26185096,76.49335999,76.49335999,59.97640728
6068,Ho2PbS4,2.2585,3.98169200,12.02252000,14.34538700,90.00000000,90.00000000,90.00000000
6069,V2Se2O9,2.2644,7.31759600,7.41259200,14.52036523,76.66949179,90.00000000,90.00000000
6070,SrTh(PS4)2,2.2546999999999997,11.24240300,11.24240300,9.76439300,90.00000000,90.00000000,90.00000000
6071,Rb3Bi2I9,2.2516,8.85491600,14.95499900,20.75444929,86.66206212,90.00000000,90.00000000
6072,Zn2H24C12Br7O6,2.2646,8.69669000,10.69974025,16.34866467,98.28624587,103.68756460,99.32643251
6073,HgSb2Xe5F22,2.2327000000000004,17.17892300,9.08521000,16.92306298,77.96868600,90.00000000,90.00000000
6074,Fe4Bi2O9,2.2665000000000006,8.05363200,8.62457700,12.26096800,90.00000000,90.00000000,90.00000000
6075,Na3NbS4,2.2363999999999997,19.87926937,14.90184977,14.33120495,85.66797257,48.37220912,45.95981830
6076,Ba2U(AsO5)2,2.2615,8.91421300,11.38750300,21.73833345,74.46553640,90.00000000,90.00000000
6077,KV2PO8,2.2428,4.82958000,14.00680842,21.57543878,71.08611196,89.70431333,89.10773369
6078,K3V5Te4(HO3)8,2.2463,7.65892100,9.03824600,17.15362600,90.00000000,90.00000000,90.00000000
6079,Rb2LiFe(MoO4)3,2.2446,5.95089400,8.68238200,25.01620000,90.00000000,90.00000000,90.00000000
6080,H12WC2(S2N)2,2.2487000000000004,7.24544800,9.65779300,16.23712200,90.00000000,90.00000000,90.00000000
6081,V2Co3TePb3O14,2.2327000000000004,26.23218400,5.28148500,15.19193073,89.98220247,90.00000000,90.00000000
6082,TlSb3F18,2.2625,9.73042814,9.73042814,8.87579500,90.00000000,90.00000000,120.00000096
6083,H9C2(N3O2)3,2.2418,8.15359300,8.49741316,8.62472077,105.05468824,95.37768034,110.94696397
6084,Rh(CO)3,2.2534,11.95735000,9.34497100,17.90969358,89.20926042,90.00000000,90.00000000
6085,NaLa(GaS2)4,2.2582,14.53486188,11.99484051,11.94628535,74.76113889,52.77152290,52.46733820
6086,MgH16(IO8)2,2.263,5.58695800,10.81192100,12.14657777,66.71334341,90.00000000,90.00000000
6087,TaVO5,2.2553,5.58378400,13.92423100,14.05088892,59.93409809,90.00000000,90.00000000
6088,NaH12AuC4(SO3)4,2.2349,5.63167600,9.12322150,10.17542146,71.47892937,74.64879996,76.27187205
6089,Na3LaMn3(AsO5)3,2.253,11.37084197,11.37084197,6.17815500,90.00000000,90.00000000,119.99999983
6090,Ba9In4(SF)10,2.2502999999999997,12.67724781,12.68417931,19.56612436,90.00000000,90.00000000,90.00000000
6091,OsXe2O3F14,2.2527999999999997,8.43495600,10.01945700,15.86634900,90.00000000,90.00000000,90.00000000
6092,Na2Lu3Te4(IO4)3,2.246,5.56683600,9.31794500,16.75197252,89.78721949,90.00000000,90.00000000
6093,K2FeF5,2.2319999999999998,5.78032600,7.48993500,11.74260600,90.00000000,90.00000000,90.00000000
6094,Ba3MoO6,2.2576,6.34829862,6.34829862,6.34829932,59.99999632,60.00000368,60.00000000
6095,Ba2MgMoO6,2.2639,5.80695605,5.80695605,5.80695605,60.00000000,60.00000000,60.00000000
6096,Ba2YbMoO6,2.2667,5.98442429,5.98442429,5.98442429,60.00000000,60.00000000,60.00000000
6097,Pb2IOF,2.2607000000000004,7.51310668,7.51310668,6.02855200,90.00000000,90.00000000,132.88430634
6098,YbBeNF6,2.2451999999999996,6.62682100,6.72848600,7.02247839,70.97451072,90.00000000,90.00000000
6099,VCd2BiO6,2.2433,7.28411298,7.28411298,5.73933200,90.00000000,90.00000000,104.70621644
6100,TlCSN,2.2447,6.80142300,6.89400100,7.85072200,90.00000000,90.00000000,90.00000000
6101,SrCo(GeO3)2,2.2472000000000003,7.00244472,8.01085953,9.79925122,76.70368675,79.00365393,92.89971971
6102,RbNbCl6,2.246,7.02721679,7.02721679,12.62970908,79.27420667,79.27420667,55.40981998
6103,Na2ZnH3Cl4,2.2596,7.04683377,7.04683377,6.33923600,90.00000000,90.00000000,119.99999788
6104,MgCr(SiO3)2,2.2552000000000003,9.37478300,5.38160900,9.54564411,79.80871434,90.00000000,90.00000000
6105,KDyTiO4,2.2650000000000006,5.39346700,5.51555100,12.92454600,90.00000000,90.00000000,90.00000000
6106,LaTi3(BiO4)3,2.2544000000000004,5.44671200,5.46928000,16.98336185,81.04144751,90.00000000,90.00000000
6107,K4Co(MoO4)3,2.2497,7.96582300,10.09850006,10.16893511,93.99298825,106.68177406,105.96217045
6108,H10PdC2S2(N4O3)2,2.2546999999999997,9.07108000,9.39620600,15.42901836,83.49434682,90.00000000,90.00000000
6109,LaN2Cl5,2.2338999999999998,8.36671500,8.68307700,12.95208000,90.00000000,90.00000000,90.00000000
6110,Co2PO4F,2.2477,7.33879709,7.33879709,9.85242345,63.97921273,63.97921273,52.39445102
6111,Ca3BCBr2N,2.2312,3.92379300,11.43886200,14.54723000,90.00000000,90.00000000,90.00000000
6112,C5Cl4,2.2635,7.77797900,9.92924100,19.86442853,68.15756771,90.00000000,90.00000000
6113,Ba3Ta2CoO9,2.244,5.84013948,5.84013948,7.18331700,90.00000000,90.00000000,119.99999410
6114,Ca9Si6(WO7)4,2.2314,7.51732500,10.13594455,10.35900740,86.83940677,107.83409146,107.02779928
6115,Zr2Ti3(PbO3)5,2.2357000000000005,4.01868900,4.48972100,19.87734200,90.00000000,90.00000000,90.00000000
6116,Y3Ga(FeO3)4,2.2532000000000005,10.84081452,10.84081452,10.84081452,109.48494516,109.48494516,109.44377507
6117,TmAgS2,2.2390999999999996,6.59794355,6.59794355,6.59794378,35.07498471,35.07498471,35.07498284
6118,TiNbSbO6,2.2472999999999996,4.91700200,5.61360476,8.73393985,91.68443905,106.32204944,90.64506010
6119,Ti2MnNiO6,2.2455000000000003,5.13335474,5.13346000,9.91526943,89.99993265,105.00215402,120.00076148
6120,TlMo3Br7,2.2451,14.27111880,14.28159969,14.37965397,90.00000000,90.00000000,90.00000000
6121,SrPr3CrNiO8,2.2453,6.80372094,6.80372094,5.50407300,90.00000000,90.00000000,132.24996143
6122,SrCa3(BrN)2,2.2574,3.77816500,6.54607500,7.40478139,72.84972247,90.00000000,90.00000000
6123,SrBiNO5,2.2404,7.90475192,7.90475192,5.99050429,89.85900072,89.85900072,136.70427253
6124,Sb3Cl9OF4,2.2573,7.21814500,10.16149582,13.76195555,91.02805263,93.06929989,105.41554370
6125,RbCrCoF6,2.2611,7.40317838,7.40317838,7.40317838,120.37873455,120.01523079,89.65944327
6126,Si3Ge(PbO2)8,2.2580999999999998,7.86496700,7.89434844,18.57215130,97.38334032,89.72837687,117.70827073
6127,PrTi6Bi7O24,2.2652,5.43663000,5.47671811,16.97783053,89.99735104,98.84899534,90.41420322
6128,Pr9Al5S21,2.2579999999999996,11.77399804,11.77399804,11.77399851,96.06866502,96.06866502,96.06866541
6129,Nb9AsO25,2.2338,11.46586728,11.46586728,15.98101560,45.82104012,45.82104012,19.49433208
6130,Nd3Ti12Bi13O48,2.2434000000000003,5.46959500,10.89836548,16.91507155,89.99711119,99.22869548,90.02981930
6131,NaSm3Ti2(SbO7)2,2.2578,7.33255446,7.33255446,7.29540348,60.78236926,60.78236926,60.99675905
6132,NaPrS2,2.247,7.11295200,7.11295200,7.11295169,34.05912124,34.05912124,34.05912023
6133,MgZn3S4,2.263,3.90035800,6.36929100,6.75869809,89.99052233,90.00000000,90.00000000