,pretty_formula,bandgap,cell_length_a,cell_lentgh_b,cell_lentgh_c,cell_angle_alpha,cell_angle_beta,cell_angle_gamma
6957,Tl2SiS3,2.2938,6.90372300,6.97259766,8.56188532,88.80018619,112.39407312,112.38795374
6958,Na5ReO6,2.2944000000000004,5.69904129,5.69904129,5.67180615,79.64694781,79.64694781,119.41000821
6959,YNb2NO5,2.3004000000000002,5.29224400,5.85005915,15.03833972,89.93021765,89.98328181,89.21136788
6960,Li4V2Si4O13,2.2681999999999998,5.02940500,13.81325500,14.15574500,90.00000000,90.00000000,90.00000000
6961,LiTa3O8,2.2872000000000003,7.77965500,8.99835100,16.98935053,89.69511873,90.00000000,90.00000000
6962,TmI3,2.2692,11.69130017,11.69130017,3.95198800,90.00000000,90.00000000,120.00000096
6963,Ca2SnS4,2.3042,6.58633600,8.29476500,13.99080100,90.00000000,90.00000000,90.00000000
6964,Li2CrFe(PO4)2,2.2917000000000005,4.77893274,10.76937635,5.97806404,90.01194766,89.99523921,91.83040608
6965,LiNi4(PO4)3,2.2887,6.39909000,9.00488700,14.53040992,89.66597669,90.00000000,90.00000000
6966,LiCr(SO4)2,2.2689,8.31777000,8.34177257,8.87790699,62.14691753,62.37246231,60.16266302
6967,Li3Fe(PO4)2,2.2929,8.75794847,8.75794847,6.88949600,90.00000000,90.00000000,120.00000358
6968,NaLiTe,2.2809000000000004,4.60744000,7.73508700,8.36928700,90.00000000,90.00000000,90.00000000
6969,Cs2HgF4,2.2815000000000003,8.06390220,8.06390220,8.06390220,145.71816558,145.71816558,49.26557188
6970,CsPrS2,2.2758000000000003,4.28305710,4.28305710,16.18898400,90.00000000,90.00000000,119.99998617
6971,Li4UC3O11,2.2975,8.91790451,8.91790451,12.53410900,90.00000000,90.00000000,120.00000377
6972,Li6PS5I,2.2742,7.29061802,7.29061802,12.39791184,73.21110845,73.21110845,60.01252315
6973,BaPr2PdO5,2.2925000000000004,6.86452200,6.86452200,5.99689500,90.00000000,90.00000000,90.00000000
6974,SrHgO2,2.2989,6.79838103,6.79838103,6.79838099,33.33543616,33.33543616,33.33543316
6975,CsDyS2,2.2782,4.11015866,4.11015866,16.07888200,90.00000000,90.00000000,120.00001057
6976,TbTa3O9,2.3054,8.81492529,8.81492529,9.68875044,56.91639777,56.91639777,36.78678402
6977,RbSnBr3,2.2693000000000003,5.86490200,5.86814219,5.87076276,89.58245050,89.53211404,89.85346367
6978,TlGeBr3,2.2918000000000003,4.22387600,9.76670500,15.61516800,90.00000000,90.00000000,90.00000000
6979,RbSnBr3,2.3054,4.55318700,9.81790200,16.57000600,90.00000000,90.00000000,90.00000000
6980,MgCr2O4,2.3044999999999995,7.41310631,7.41310631,9.40092925,51.06092186,51.06092186,23.12943497
6981,MgV2O6,2.2904,5.64784352,5.64784352,5.22439000,90.00000000,90.00000000,122.17432625
6982,CaNiO2,2.2853,3.02210300,8.54345837,9.33180477,81.66484749,80.70736824,80.35386026
6983,AlCrO3,2.2781000000000002,5.01951300,5.05239300,7.53218200,90.00000000,90.00000000,90.00000000
6984,YWO3,2.2796000000000003,5.54625300,5.90712100,8.01414800,90.00000000,90.00000000,90.00000000
6985,Mg2Nb2SnO8,2.2988,10.88120254,10.88120254,5.30827853,88.98273729,88.98273729,32.67588755
6986,ZnWF5,2.3023,10.51362400,5.34846300,8.06747421,70.86019110,90.00000000,90.00000000
6987,Mg2Sb2O5,2.2948999999999997,3.16870500,7.90275000,12.73530600,90.00000000,90.00000000,90.00000000
6988,Mg(MoO2)2,2.2744,6.35661561,6.35661561,6.35661561,60.00000000,60.00000000,60.00000000
6989,TiP2O7,2.2875,6.34083100,6.44141478,6.94922051,88.08057433,114.38291006,95.73399013
6990,Mg2SnWO6,2.2891999999999997,5.24168700,5.70629585,5.71593818,73.23548979,66.73329031,67.50776918
6991,Ca3Fe3(AsO4)4,2.3035000000000005,5.19220100,9.20383700,17.51647420,63.43778084,90.00000000,90.00000000
6992,As4W3O16,2.2825,4.98840800,8.53944300,15.86376135,81.48248248,90.00000000,90.00000000
6993,CaSnAs2O7,2.2737,9.47260900,7.91123300,9.97287974,64.04908553,90.00000000,90.00000000
6994,Ti3Zn2O8,2.2935999999999996,5.96688029,5.96688029,9.55316500,90.00000000,90.00000000,120.00000325
6995,CaVAs2O7,2.2929000000000004,8.57865900,8.13614300,10.65287533,60.72981674,90.00000000,90.00000000
6996,ZnBiSbO5,2.3045,5.43404811,8.04703208,12.16763700,90.00000000,90.00000000,106.88091827
6997,ZnCo3(P2O7)2,2.2743,7.57492900,7.23343100,9.57032123,68.56884288,90.00000000,90.00000000
6998,LaMgTiCrO6,2.2800000000000002,5.50527600,5.37002800,9.38989542,55.19668364,90.00000000,90.00000000
6999,LaZnCrSnO6,2.2969,5.60066200,5.45726800,9.60800675,55.63226930,90.00000000,90.00000000
7000,KNdS2,2.3231,7.76150544,7.76150544,7.76150584,31.48545330,31.48545330,31.48544982
7001,BaCa3O4,2.3350999999999997,5.10824600,5.10824600,5.10824600,90.00000000,90.00000000,90.00000000
7002,K2S,2.3209999999999997,5.27826362,5.27826362,5.27826362,60.00000000,60.00000000,60.00000000
7003,NaYS2,2.3173000000000004,7.06668519,7.06668519,7.06668540,32.79109228,32.79109228,32.79108871
7004,Na3W2N5,2.3221,9.67463671,9.67463671,9.67463671,101.74109399,101.74109399,126.37167240
7005,CsMg30MnO32,2.3335999999999997,8.69382900,8.69382900,8.61501700,90.00000000,90.00000000,90.00000000
7006,NaMg30BO31,2.3267999999999995,8.43320400,8.55545500,8.66678200,90.00000000,90.00000000,90.00000000
7007,NaLiMg30O31,2.3131999999999997,8.51077400,8.54747600,8.56887400,90.00000000,90.00000000,90.00000000
7008,KMg30BiO32,2.3301000000000007,8.64611800,8.64611800,8.76040500,90.00000000,90.00000000,90.00000000
7009,KMg30BO31,2.3320999999999996,8.53790600,8.61628100,8.66382800,90.00000000,90.00000000,90.00000000
7010,KLiMg30O31,2.3312,8.58585400,8.58726100,8.63545000,90.00000000,90.00000000,90.00000000
7011,Na2CoPO4F,2.3301,5.29693200,11.79895100,13.93876000,90.00000000,90.00000000,90.00000000
7012,CsTlF3,2.339,6.90095489,6.90095489,6.90095489,60.00000000,60.00000000,60.00000000
7013,NaCoF3,2.3175,5.38095283,5.38095283,7.52598900,90.00000000,90.00000000,146.64911965
7014,Sr2MgTeO6,2.3412,5.66983470,5.66983470,5.69652059,59.81972185,59.81972185,60.02291042
7015,HgSeO3,2.3238,9.42747400,5.03819900,7.22977438,89.64550569,90.00000000,90.00000000
7016,Cs2HCl,2.3174,12.08711534,12.08711534,12.08711534,120.49786097,119.82437083,89.72215927
7017,CdCN2,2.3417000000000003,5.30488698,5.30488698,5.30488727,39.79031285,39.79031285,39.79030458
7018,Li20Si3P3S23Cl,2.3125999999999998,8.77198900,8.89822300,12.79265385,89.84328648,90.00000000,90.00000000
7019,Mg30MnCO32,2.3171,8.52654100,8.52654100,8.53664400,90.00000000,90.00000000,90.00000000
7020,KNaSe,2.338,4.97915604,4.97915604,4.97915604,60.00000000,60.00000000,60.00000000
7021,ScBiO3,2.3366,6.01484032,6.01484032,6.01484077,56.62642017,56.62642017,56.62642390
7022,KCd(NO2)3,2.3128,5.45178029,5.45178029,5.45178016,90.78219256,90.78219256,90.78220308
7023,TeO2,2.3365,3.57763700,5.85566700,8.02400800,90.00000000,90.00000000,90.00000000
7024,H6Pd(NO)4,2.3178,5.18072600,5.59573937,6.50717065,90.79283584,109.93483088,101.05598329
7025,K2RbGaBr6,2.3279,8.17883968,8.17883968,8.17883968,60.00000000,60.00000000,60.00000000
7026,K2LiSbBr6,2.3158,7.82342236,7.82342236,7.82342236,60.00000000,60.00000000,60.00000000
7027,K2RbAsI6,2.3253999999999997,8.93808144,8.93808144,8.93808144,60.00000000,60.00000000,60.00000000
7028,K3ScI6,2.3411999999999997,8.80951953,8.80951953,8.80951953,60.00000000,60.00000000,60.00000000
7029,Cs2NaIrF6,2.3240999999999996,6.30328561,6.30328561,6.30328561,60.00000000,60.00000000,60.00000000
7030,K2PrCuCl6,2.3373,7.47282326,7.47282326,7.47282326,60.00000000,60.00000000,60.00000000
7031,Rb2NdCuBr6,2.3191,7.88812970,7.88812970,7.88812970,60.00000000,60.00000000,60.00000000
7032,Cs2DyCuCl6,2.3141999999999996,7.44560247,7.44560247,7.44560247,60.00000000,60.00000000,60.00000000
7033,Cs2LiSbBr6,2.3366000000000002,7.96115686,7.96115686,7.96115686,60.00000000,60.00000000,60.00000000
7034,Rb2LaAuCl6,2.3287000000000004,7.80540952,7.80540952,7.80540952,60.00000000,60.00000000,60.00000000
7035,Rb2TiHgF6,2.3093,6.86239353,6.86239353,6.86239353,60.00000000,60.00000000,60.00000000
7036,Rb2LiSbBr6,2.3242,7.87699277,7.87699277,7.87699277,60.00000000,60.00000000,60.00000000
7037,Rb3AsI6,2.3105,8.97733436,8.97733436,8.97733436,60.00000000,60.00000000,60.00000000
7038,Y2V3(SiO4)3,2.3266,10.78890464,10.78890464,10.78890464,109.47122063,109.47122063,109.47122063
7039,Rb2GeS3,2.3355,7.73421984,7.73421984,9.91373784,58.68392875,58.68392875,53.95887580
7040,MgCr(SiO3)2,2.3232,5.31841600,9.09821400,18.60551700,90.00000000,90.00000000,90.00000000
7041,MgV(SiO3)2,2.3316,5.27728800,8.95328200,18.68596900,90.00000000,90.00000000,90.00000000
7042,SiC,2.3298000000000005,3.09400618,3.09400618,10.12781600,90.00000000,90.00000000,120.00000379
7043,Sb3IO4,2.3404,14.55605100,11.46937900,16.21338214,69.96188223,90.00000000,90.00000000
7044,Li7NbS6,2.3424,7.55339200,7.13458600,12.24329612,55.58565694,90.00000000,90.00000000
7045,Li6Ti2O7,2.3414,5.86292600,5.13627300,9.94922993,69.14492180,90.00000000,90.00000000
7046,Li4TiFe2Ni3(PO4)6,2.3134000000000006,8.50462821,8.60270922,8.60285994,61.39626803,61.52794399,61.76305949
7047,Li2VF5,2.3147,5.94549300,7.70275800,17.38092300,90.00000000,90.00000000,90.00000000
7048,Li11Fe5(OF11)2,2.3197,5.16196100,8.76569767,9.56349962,90.40093575,90.59588448,90.42896588
7049,Li12Cr3NiP4(CO7)4,2.3137,6.46255000,8.61857400,9.99521450,85.41046906,90.00000000,90.00000000
7050,Bi3O4F,2.3077000000000005,9.25935941,9.25935941,5.82969226,81.59192471,81.59192471,36.45233191
7051,Sn3SO7,2.3182,5.79677200,12.21865100,13.35788300,90.00000000,90.00000000,90.00000000
7052,NF,2.343,4.57430664,4.57430664,5.79221100,90.00000000,90.00000000,121.48019892
7053,Na3Ag3W2(OF)6,2.3411999999999997,10.30518353,10.30518353,10.30518355,32.90846945,32.90846945,32.90846976
7054,Ba3SmInS6,2.3194000000000004,8.49706034,8.49706034,8.49706057,92.56700764,92.56700764,92.56700707
7055,Gd3NbO7,2.3304000000000005,6.54238961,6.54238961,7.63057200,90.00000000,90.00000000,109.65893032
7056,BaScZn3GaO7,2.3120000000000003,6.28589769,6.28589769,10.20868400,90.00000000,90.00000000,119.99999678
7057,Lu2PbS4,2.308,3.92257500,11.92569100,14.18107600,90.00000000,90.00000000,90.00000000
7058,Ho2ZnS4,2.3423,6.34019900,7.85105200,13.51692900,90.00000000,90.00000000,90.00000000
7059,RbPPbS4,2.3399,6.51319800,6.80138800,17.65903900,90.00000000,90.00000000,90.00000000
7060,LiH6IO7,2.329,5.76104271,5.87481496,9.78276478,102.93093780,94.79998612,114.50304843
7061,AgB3O5,2.3294,3.93623400,8.39685400,10.39231200,90.00000000,90.00000000,90.00000000
7062,CoH24C6Br2(N2O3)2,2.3342,9.07998716,9.07998716,14.91432600,90.00000000,90.00000000,111.14725609
7063,ThV2O7,2.3188000000000004,7.14752200,7.34949300,23.36545100,90.00000000,90.00000000,90.00000000
7064,Li3AsH16(SO2)4,2.3283,10.07449700,10.25791100,14.47172513,72.87445189,90.00000000,90.00000000
7065,Gd2B4O9,2.3404,4.45929170,12.96054961,25.04778391,99.71359505,90.00000000,99.90605930
7066,Dy4GaSbS9,2.3389,9.88592466,9.88592466,13.53479400,90.00000000,90.00000000,90.94831177
7067,S,2.3187,10.22707600,14.09050300,19.20966032,68.76723425,90.00000000,90.00000000
7068,MoPbSeO6,2.3425,7.06185000,7.33241896,11.09851662,99.35413185,100.09608021,89.79062246
7069,LiMnH2OF4,2.3311,5.43371100,5.51544700,12.49103600,90.00000000,90.00000000,90.00000000
7070,K3Ta2Cu3S8,2.311,12.21341096,12.21341096,14.46685512,60.49383753,60.49383753,26.38648883
7071,OsXeO3F8,2.3383000000000003,17.63694100,17.63694100,5.69911400,90.00000000,90.00000000,90.00000000
7072,Cs4(BSe)9,2.33,11.03133300,11.15319543,11.49253128,92.83265979,102.96372568,110.39391540
7073,UZn4P2(H2O5)3,2.3096,6.68505200,9.04983100,19.82700600,90.00000000,90.00000000,90.00000000
7074,Ba3U2As4O19,2.3224,10.95086681,10.95086681,9.84020157,84.46103302,84.46103302,52.61167741
7075,Hg3HN2O7,2.3406000000000002,10.34246200,8.85968800,10.86555051,62.55741767,90.00000000,90.00000000
7076,Ho4GaSbS9,2.3432000000000004,9.86643224,9.86643224,13.50691100,90.00000000,90.00000000,90.93481094
7077,Li7H5N4,2.3082,7.19605100,7.26964800,10.65571500,90.00000000,90.00000000,90.00000000
7078,P4Se3Br2,2.32,10.65504148,10.65504148,13.34329454,72.30515619,72.30515619,99.39114302
7079,Cs2Nb3Cl7O5,2.3133,9.95552611,9.95552611,11.33892109,72.92701391,72.92701391,54.24369150
7080,P3H2CN2Cl11,2.3173999999999997,13.25861700,11.05465900,13.74877340,83.93444795,90.00000000,90.00000000
7081,Co3SnC12ClO12,2.3171,16.45211700,8.59053200,16.50363679,74.19199112,90.00000000,90.00000000
7082,Tb4GaSbS9,2.326,9.92205812,9.92205812,13.58302100,90.00000000,90.00000000,90.92601746
7083,ThV2SeO9,2.3141,6.93870700,7.25145400,14.71421300,90.00000000,90.00000000,90.00000000
7084,Zn2As(HO2)3,2.3191,8.06627000,10.35651100,12.95574250,75.57910168,90.00000000,90.00000000
7085,Na2CoH12(SO7)2,2.3318000000000003,12.08441500,5.94426200,8.84843646,77.42696742,90.00000000,90.00000000
7086,K3Bi3(PS4)4,2.3129,13.75683231,21.09175672,21.09175672,90.00000000,90.00000000,90.00000000
7087,CoH18CN6ClO3,2.3154,10.16182600,10.16182600,10.16182600,90.00000000,90.00000000,90.00000000
7088,Ca3MnH12S2O17,2.3407,8.62575032,8.62575032,10.84252600,90.00000000,90.00000000,120.00000248
7089,V2Pb14Cl4O17,2.3284000000000002,13.28578840,13.28578840,11.51694464,76.95809200,76.95809200,121.97340194
7090,NiH8(NO5)2,2.3276,5.62821900,7.57013177,10.29303635,70.53650775,81.06659063,79.32573899
7091,Pb2BrOF,2.3355,7.22567166,7.22567166,5.93846000,90.00000000,90.00000000,131.71834697
7092,ZnH2C4(S3N2)2,2.3213999999999997,7.75265600,11.71100000,13.12739000,90.00000000,90.00000000,90.00000000
7093,TbMoO5,2.3340000000000005,12.58587400,5.41627700,6.97103380,63.10120411,90.00000000,90.00000000
7094,Pr2MoO6,2.3288,10.30737558,10.30737558,5.62688823,75.16719391,75.16719391,68.66254127
7095,MnP2HO8,2.3187,5.74646200,7.86079600,10.52950949,56.50427226,90.00000000,90.00000000
7096,LaMoO5,2.327,13.04961800,5.58552000,7.26978253,64.60336021,90.00000000,90.00000000
7097,K3Cr2(AsO4)3,2.338,11.09549669,11.09549669,11.09549669,109.47122063,109.47122063,109.47122063
7098,K2Ca2MgH2(SO4)4,2.3142,6.96354500,6.99418040,8.93603160,100.05423621,104.62397481,113.96657959
7099,In2(SeO4)3,2.3121,9.31212500,9.06692200,15.50087048,55.03659616,90.00000000,90.00000000
7100,HfCdO3,2.3235,5.55713300,5.71663400,8.04588400,90.00000000,90.00000000,90.00000000
7101,K2CdGeO4,2.3083,5.86056000,11.73302600,16.41992800,90.00000000,90.00000000,90.00000000
7102,Fe(ClO2)2,2.3334,6.81630400,5.27459600,8.19617649,52.87398314,90.00000000,90.00000000
7103,Tl5BrCl4,2.3283000000000005,14.17504134,14.17504134,3.93641800,90.00000000,90.00000000,157.35061472
7104,TlV3Cd4O12,2.3383,9.55903905,9.55903905,7.19827122,72.87736035,72.87736035,92.07472696
7105,SrGd2BeO5,2.3137999999999996,6.55237900,7.18635100,9.54433200,90.00000000,90.00000000,90.00000000
7106,Sr3Ta4Ti4O21,2.3313,9.09450435,9.09450435,11.58370767,89.96055401,89.96055401,60.15758566
7107,Sr2Ti5(Bi2O9)2,2.3179999999999996,5.50753500,5.53767627,24.86155876,96.30260549,90.08148814,90.31795075
7108,RbV3Cd4O12,2.3089999999999997,9.56836376,9.56836376,7.19674131,72.90053309,72.90053309,91.96468246
7109,RbTi3FeO8,2.3268,7.39639494,7.39639494,10.27587441,46.45436380,46.45436380,23.55698981
7110,Nb3Fe(BiO3)6,2.3255,5.49266700,5.55048549,13.23886840,90.40280397,101.62776844,90.11659454
7111,NaYTi2O6,2.3324000000000003,5.33532700,5.54697800,7.64367600,90.00000000,90.00000000,90.00000000
7112,NaGdTi2O6,2.3162000000000003,5.38140300,5.53402600,7.66614500,90.00000000,90.00000000,90.00000000
7113,MnFeSiO4,2.3324000000000003,4.93289300,6.27828100,10.58583800,90.00000000,90.00000000,90.00000000
7114,MgFe2O3,2.3100999999999994,3.02742416,6.96342680,6.16601551,102.85989881,90.07129688,77.47874737
7115,Mg2Nb3Bi3O14,2.3099000000000003,7.33379116,7.33379116,7.33379153,61.84351957,61.84351957,61.84352084
7116,Mg3Ti(BO4)2,2.3122999999999996,3.12860200,9.38849600,9.50221900,90.00000000,90.00000000,90.00000000
7117,Li2TiCr(PO4)3,2.3389,8.63782400,8.73027700,12.11515100,90.00000000,90.00000000,90.00000000
7118,La2GaFeO6,2.328899999999999,7.90528047,7.90592916,7.91099531,90.14529003,90.04513411,90.05382790
7119,KNaTi4(BiO6)2,2.3229,5.76605161,5.76605161,7.77402300,90.00000000,90.00000000,95.15831599
7120,LaPbNO5,2.3334,7.64323086,7.64323086,3.88306564,80.02165143,80.02165143,35.82948570
7121,CsVZnF6,2.3203,7.53672736,7.53672736,7.53672736,120.81719162,119.39949186,89.81684800
7122,Cs2ZrMn(MoO4)4,2.3101000000000003,5.95707936,10.25989865,17.82816399,90.55673582,80.36656786,73.11468375
7123,CrGa(BiO3)2,2.3276000000000003,7.94082854,9.68454738,7.94119413,66.00914746,90.47759466,113.98735333
7124,Er9Al5S21,2.3131000000000004,11.33439461,11.33439461,11.33439384,94.65600758,94.65600758,94.65600928
7125,Cs3Pr5(PS4)6,2.3179,10.63815262,10.63815262,21.51104706,79.70200500,79.70200500,78.02044082
7126,BaSrLaBiO6,2.3075000000000006,6.28283891,6.28283891,6.28283891,60.00000000,60.00000000,60.00000000
7127,BaLa3TiCr3O12,2.3076000000000008,5.61784052,7.89747361,11.80098523,70.45053936,90.00012818,89.99981654
7128,Ba3TiNb4O15,2.3385000000000002,12.73975800,4.12425300,12.67461555,89.87014812,90.00000000,90.00000000
7129,Ba2CePbO6,2.3311,6.21166042,6.21166042,6.21166040,60.33716780,60.33716780,60.33716882
7130,Ba2La2MgTi3O12,2.3245999999999993,9.69228058,9.69228058,9.69228171,34.12505833,34.12505833,34.12505477
7131,Ba6Pr2Fe4O15,2.3421,11.97293248,11.97293248,7.17554860,89.81903917,89.81903917,119.63732497
7132,CsVNiF6,2.3209,7.43357711,7.43357711,7.43357711,120.79358115,118.60995246,90.52764478
7133,Al2Fe2Bi2O9,2.32,5.97497300,7.95235200,8.44613400,90.00000000,90.00000000,90.00000000
7134,Er2MgS4,2.3328999999999995,7.13348659,7.13348659,7.13348659,110.49071820,110.49071820,107.45091979
7135,TbSbO4,2.3325,5.40970200,7.58372200,7.69418010,80.91990655,90.00000000,90.00000000
7136,TmSbO4,2.3144,5.33016000,7.51177400,7.62407632,81.40552459,90.00000000,90.00000000
7137,Ca3Sc2N4,2.3426,6.90826445,8.48706620,6.17373791,89.99999683,90.41858502,127.89883063
7138,Al6W5N16,2.3160999999999996,7.85932000,9.07516069,9.07516072,90.00000508,54.73561408,54.73561391
7139,Be3Si3(SnO6)2,2.3183,8.18828255,8.25742030,14.25503801,89.23031842,90.00000000,90.00000000
7140,CoBi6(SO8)2,2.3186000000000004,5.66395000,23.44853611,11.40935464,84.95703216,90.00021252,90.00343838
7141,Co(HO)2,2.3348000000000004,3.17353949,5.95478676,5.61292516,122.64498192,90.92543890,83.69663290
7142,Li2CoO2,2.3336,3.07413588,5.59563377,5.17109041,91.76886190,89.99196772,89.98975209
7143,Cr2NiO4,2.3219999999999996,5.95165907,5.99100101,5.96493409,60.85273406,60.08741831,90.10491300
7144,LiFeOF,2.3261000000000003,3.02313003,4.43537908,12.02754202,90.02537430,87.70418607,89.99672831
7145,SrCo2(AsO4)2,2.3287000000000004,5.74589571,7.21185258,9.57477719,111.64982980,101.36074275,98.80361424
7146,Li2VOF4,2.3345,5.31422374,7.40945419,10.85940793,69.98839543,96.73347773,109.95453903
7147,MgTe,2.3181000000000003,4.60511211,4.60511211,4.60511211,60.00000000,60.00000000,60.00000000
7148,Nd2SeO2,2.308,4.01835071,4.01835071,7.07297800,90.00000000,90.00000000,120.00001167
7149,Rb2PdF6,2.3181000000000003,6.21071968,6.21071968,6.21071968,60.00000000,60.00000000,60.00000000
7150,S5N6,2.3099000000000003,7.68352901,7.68352901,7.91807441,80.45960773,80.45960773,102.71906391
7151,NaGe2N3,2.3392999999999997,5.77263304,5.77263304,5.18649700,90.00000000,90.00000000,119.16635426
7152,Hf(PS3)2,2.3279,12.37112279,11.66192673,7.13910671,78.24507545,67.35431303,34.40061152
7153,Ba2SrUO6,2.3127999999999997,6.37198900,6.30032300,10.91011889,54.96704133,90.00000000,90.00000000
7154,RbMo2P3O13,2.3407,6.49584172,9.92708154,19.72600916,90.00000000,90.00000000,107.06833359
7155,Rb2MgO2,2.3133,11.03608538,6.47807543,5.56972381,90.00000000,90.00000000,90.00000000
7156,Ca2Ga2O5,2.3147999999999995,8.33177433,8.33177433,8.33177433,141.95857599,140.36649303,56.10271521
7157,CaLaFeWO6,2.34,5.61136683,7.98356500,5.80642710,90.28498000,88.46210090,89.19636004
7158,Tl3PS4,2.3082000000000003,9.11052500,9.23742100,11.14442900,90.00000000,90.00000000,90.00000000
7159,RbV3(SeO6)2,2.333,7.16851243,7.16851243,12.09522600,90.00000000,90.00000000,120.00000400
7160,DyPtF7,2.3331,5.54934200,8.89106100,12.00019032,62.42952366,90.00000000,90.00000000
7161,Mg2GeS4,2.311,6.05960300,7.52192200,12.93076000,90.00000000,90.00000000,90.00000000