,pretty_formula,bandgap,cell_length_a,cell_lentgh_b,cell_lentgh_c,cell_angle_alpha,cell_angle_beta,cell_angle_gamma
2831,Os2C6SO6,2.0048,8.57184400,9.31696525,14.50207769,80.59605571,86.02626097,68.29985232
2832,Ba4LiW2N7,1.9822999999999995,6.57530500,10.48807700,17.52623344,62.70248014,90.00000000,90.00000000
2833,AgNO3,2.0111000000000003,7.07777900,7.41914300,10.22652200,90.00000000,90.00000000,90.00000000
2834,Al2CoO4,1.9935999999999998,5.78364792,5.78364792,14.19663500,90.00000000,90.00000000,119.99999906
2835,Ca2La2MgTi3O12,2.0146000000000006,5.51821600,5.58068000,15.59867500,89.99985308,90.00000000,90.00000000
2836,MgTi3Nb2(PbO3)6,2.0091,5.68833558,5.68833558,13.96448000,90.00000000,90.00000000,119.99999515
2837,NaLiLa2Ti4O12,1.9969000000000001,5.48987500,5.49325272,8.00632453,90.10365875,90.21876192,90.07508710
2838,Os5(CO)16,1.9935,9.30901571,9.30901571,25.28982800,90.00000000,90.00000000,119.99999791
2839,AgMo6Br13,2.0089,9.57234800,9.70543616,14.76783678,96.59708205,102.63210115,113.22474920
2840,Er2S3,1.9913999999999996,13.65443409,13.65443409,13.65443409,144.83350570,144.83350570,50.58270816
2841,Zn(Bi25O38)2,1.9832,8.95415000,9.03749819,29.54245726,90.05228766,90.07596977,109.32117275
2842,BaLa5TiCr5O18,1.9947,5.56195700,5.56585379,27.43049331,89.60184120,89.54867647,60.66259919
2843,Mg4Al9Cu(SiO4)9,1.9945000000000004,9.47970900,9.83220700,9.88382226,60.38430875,90.00000000,90.00000000
2844,Li10Sn(PS6)2,2.0004,8.85424100,8.85424100,12.85128500,90.00000000,90.00000000,90.00000000
2845,Ba2H6Os,1.9975999999999998,5.74432053,5.74432053,5.74432053,60.00000000,60.00000000,60.00000000
2846,H8W(S2N)2,1.9874,7.12584700,9.78299100,12.46874800,90.00000000,90.00000000,90.00000000
2847,BH11AuC4IN2,1.9989,6.23318500,9.42478623,9.92794107,116.51069682,90.97288615,101.95512315
2848,P5HC(NCl6)3,1.9812000000000003,13.84122595,13.84122595,15.41892600,90.00000000,90.00000000,106.21354093
2849,K8V2(S2O9)3,1.9876999999999998,14.14345800,13.77063400,14.26348105,89.61140872,90.00000000,90.00000000
2850,RbGdS2,2.0019,8.04341412,8.04341412,8.04341362,29.78076596,29.78076596,29.78076847
2851,Bi2W3(CO)15,2.0071000000000003,7.08458900,11.02920690,17.56259875,87.50489934,83.00821836,73.28452363
2852,Li2ZrFe(PO4)3,2.0109000000000004,10.10076300,10.88188900,13.60985228,51.40964251,90.00000000,90.00000000
2853,HRu6C16NO16,1.9968,10.35504900,15.48417800,16.45099853,81.54726755,90.00000000,90.00000000
2854,CsB6H8O7,2.0103,7.38721500,8.60586400,13.31179530,83.98889683,90.00000000,90.00000000
2855,Zn2AsHO5,2.0109000000000004,6.14464500,8.46494800,8.64857800,90.00000000,90.00000000,90.00000000
2856,K2Zn(H2N)4,1.9868000000000001,6.93209000,7.50022904,8.13035550,108.04058310,84.17991551,115.82156295
2857,SbHC2NCl11,1.9922,10.47163300,11.42278400,16.02438638,63.13188832,90.00000000,90.00000000
2858,CoHRu3(CO)13,2.0139,15.31407100,8.55652500,15.79997865,74.39956862,90.00000000,90.00000000
2859,Ca10Ti8NbFeO30,1.9961000000000002,5.43686100,5.53379019,38.61817823,90.07275440,90.04505839,90.23411052
2860,Hg2SO4,1.9921000000000002,4.65612600,6.34795900,8.68497486,87.23873123,90.00000000,90.00000000
2861,KCo2As2HO8,2.0012999999999996,5.08287800,8.89893700,16.07942666,83.26537493,90.00000000,90.00000000
2862,P4WO13,1.9875,5.21283800,7.99310598,13.95489296,78.48245632,86.59211158,81.32080979
2863,VCrO4,1.9795999999999998,5.83189499,5.77918339,5.77916694,115.44617931,59.69788154,120.30175183
2864,Mn4OF6,1.9800999999999997,5.24337800,7.28236635,7.28234835,90.06970828,90.00009089,90.00009089
2865,LiFe2OF5,1.9792,9.05735637,9.05735637,5.43179139,80.62448645,80.62448645,143.57172016
2866,Li2WS4,2.0086,6.77864604,6.77864604,6.77864604,126.68228744,126.68228744,78.76961684
2867,VOF,1.9997999999999996,3.33277100,3.78041300,10.06008900,90.00000000,90.00000000,90.00000000
2868,Li3CuS2,1.9809999999999999,5.29296600,5.33776300,12.07670300,90.00000000,90.00000000,90.00000000
2869,LiVF5,1.9892,8.74524200,6.32268200,8.87635372,49.29827238,90.00000000,90.00000000
2870,Rb3HoO3,2.0084,7.33963292,7.33963292,7.29234557,85.18682829,85.18682829,116.43481016
2871,Li2CrFeO4,1.9823000000000004,5.16426700,5.95235355,7.87088476,79.12413097,77.32721358,73.34248911
2872,Tm2SeO2,2.0025,6.54944880,6.54944880,6.54944880,146.46606267,146.46606267,48.15501947
2873,Li3Al2VO6,1.9829999999999997,5.02230407,5.11625706,17.32624156,89.98612969,90.01967423,70.56131022
2874,Ca2Ti6N2O11,1.9871000000000003,7.69709540,7.69709540,9.31610780,81.65624104,81.65624104,28.46936686
2875,La3Ti3CrO12,1.9975000000000005,5.53226200,5.53418317,7.84630294,89.87367866,89.97293050,89.98588877
2876,LiFe2O2F3,2.0132,3.17614300,8.16463100,8.33058400,90.00000000,90.00000000,90.00000000
2877,Na6BeO4,1.9849,7.31463189,7.31463189,5.76813800,90.00000000,90.00000000,119.99999897
2878,DyWO4,1.9847000000000001,5.55841700,5.20378700,5.32917054,82.93364346,90.00000000,90.00000000
2879,NbVO5,1.9816,6.87996500,6.87996500,4.29901400,90.00000000,90.00000000,90.00000000
2880,Gd2HgO4,2.0053,7.14937534,7.14937534,10.23448182,59.17210010,59.17210010,30.06960759
2881,Li2CrFeO4,1.9924000000000004,5.16771400,5.95173651,7.87606840,100.87938693,109.04519933,89.93773428
2882,Li4Ti3Fe3(SnO8)2,1.9913999999999996,6.03434997,6.03434997,9.82932549,89.36047884,89.36047884,59.64524288
2883,LiCrPO4,1.9921000000000002,4.97672800,5.29986391,6.46962867,89.58283807,89.38139716,63.18476969
2884,Li5MnF8,1.9875,6.03749870,6.03749870,6.03749870,123.49445988,122.19938782,85.13986980
2885,Li2Fe2SnO6,1.9972999999999996,5.17346654,5.17346654,10.12327100,90.00000000,90.00000000,119.66349307
2886,Li6VCrP2(CO7)2,1.9898000000000002,6.53157800,4.99675400,8.56425728,85.37058339,90.00000000,90.00000000
2887,Rb3DyO3,1.9797,7.36247298,7.36247298,7.30353945,85.26483321,85.26483321,116.34416931
2888,Li3V2(PO4)3,2.0015,8.79102100,8.56103800,14.72268572,55.08492776,90.00000000,90.00000000
2889,Li2CoP2O7,2.0156,7.58816543,7.58816543,10.99408658,88.86850826,88.86850826,116.71719427
2890,La2Ti3O9,1.987,8.71066458,8.71066458,9.59966585,57.02291834,57.02291834,36.87060486
2891,LiVP2O7,1.9804999999999997,6.30702076,6.30702076,13.79415320,77.44014479,77.44014479,81.07109479
2892,Li4V7(PO4)6,2.0010000000000003,8.91268503,8.91268503,6.70780170,79.96582669,79.96582669,105.82994495
2893,Li3Sn2(PO4)3,1.9987,9.38908100,8.90706700,12.54289796,85.96329431,90.00000000,90.00000000
2894,Li3Fe3(PO4)4,1.9985,8.25816500,8.89327811,13.54413133,95.72265680,90.07984276,90.06144947
2895,LiCrPO4F,1.984,7.26442989,7.26442989,9.56105395,64.22553080,64.22553080,51.73081504
2896,Bi19(O9F)3,2.0105000000000004,13.08401219,13.08401219,10.46398400,90.00000000,90.00000000,120.00000098
2897,LiVF5,1.9903,6.78199400,6.78199400,4.59956000,90.00000000,90.00000000,90.00000000
2898,Li5Fe(SiO4)2,2.0034,9.81325100,9.84877800,14.22353800,90.00000000,90.00000000,90.00000000
2899,Rb4Ge9(H3N)5,1.9816999999999998,15.33013300,9.18025700,17.29504082,88.07328081,90.00000000,90.00000000
2900,BaLiCaVP2O9,2.0006999999999997,7.22144400,7.44198500,14.87731724,78.83174796,90.00000000,90.00000000
2901,Li2VCrP2(O4F)2,2.0085,5.37081200,7.40905343,14.55085536,94.23449403,92.70382709,109.78129152
2902,Li2VCrP2(HO5)2,1.9839000000000002,5.42699000,7.45249162,14.45848000,95.19234619,92.57668752,110.49002299
2903,LiMnF4,2.0025,6.01427900,10.17929180,10.18636015,85.02639378,107.16855622,107.09944484
2904,LiV6F13,1.9829,8.06771000,8.11694138,10.23420133,75.88533596,75.53344648,62.43597098
2905,Sn13(O5F3)2,1.9994,8.35513878,8.35513878,23.03688606,86.83078917,86.83078917,50.65629917
2906,Na5FeO4,1.9914,10.35101100,10.60593200,10.72719000,90.00000000,90.00000000,90.00000000
2907,RbLiV(PO4)2,1.9878999999999998,9.02814300,4.93873600,16.36741868,84.67240548,90.00000000,90.00000000
2908,LiV(CO3)2,1.9881000000000002,5.76796134,5.76796134,5.76796132,48.00555963,48.00555963,48.00556224
2909,K2Mn3V2(HO5)2,1.9794,6.26008100,8.27953228,10.93865189,75.93472288,90.00122579,112.21577997
2910,Fe4OF7,1.9977999999999998,5.80228276,5.80228276,4.79182071,88.76884891,88.76884891,68.94433736
2911,Li3MnFeCo(PO4)3,1.9995000000000003,6.09142300,10.44697300,14.31023569,89.90494898,90.00000000,90.00000000
2912,Li3VO3F,1.9903,5.86081026,5.86081026,9.44597265,71.05569485,71.05569485,87.22891177
2913,Li7VO5F,1.9844,5.26229499,10.51948212,9.58602622,100.32654761,92.64332477,102.54681712
2914,LiFe2(BO3)2,1.9792,9.06588900,5.26375000,11.36978232,64.15724536,90.00000000,90.00000000
2915,Li2V4P4O15,1.9889999999999999,8.88048210,8.88048210,18.31732366,83.37944380,83.37944380,105.35397492
2916,Li3V4O11F,1.9956,4.98162200,5.08934309,9.04380778,95.27118074,89.63485271,110.68631989
2917,Li3VSi2O7,1.9918,5.02169100,8.98635000,12.54352200,90.00000000,90.00000000,90.00000000
2918,LiVSiO4,2.0153999999999996,10.66757200,5.60561400,10.42850213,89.45537296,90.00000000,90.00000000
2919,Li4Fe3(BO3)4,2.006,8.94871600,5.25241200,11.05338900,64.08366315,90.00000000,90.00000000
2920,Li4Ti15O32,2.0088,19.76762503,19.76762503,19.76762500,17.37286414,17.37286414,17.37286484
2921,LiMnF5,1.9944,5.66396900,7.88090700,8.22196400,90.00000000,90.00000000,90.00000000
2922,Li2VF6,2.0060000000000002,8.74252200,5.22915200,5.23077688,69.00321226,90.00000000,90.00000000
2923,Li3CrBO5,1.9829999999999999,4.72810400,4.86598500,16.26852400,90.00000000,90.00000000,90.00000000
2924,Li4Bi2C4SO16,1.9868,10.29571136,10.05380480,9.59276912,63.15678721,60.60789405,56.23531874
2925,MgSnO3,2.0096999999999996,5.33165300,5.45690800,7.83945400,90.00000000,90.00000000,90.00000000
2926,Li4VCr3O8,2.0140000000000002,5.15659611,5.96221586,10.71702929,105.90492459,85.38583823,72.96842055
2927,RbLi2Cr2(BO3)3,2.0153,5.29532400,5.67268200,12.93151334,87.62775399,90.00000000,90.00000000
2928,Li2V3O8,1.9924,8.95256500,8.95256500,5.27918600,90.00000000,90.00000000,90.00000000
2929,Na3FeBAsO7,1.9826000000000001,6.86773600,5.29728600,9.11541409,88.88561360,90.00000000,90.00000000
2930,LiSnAsCO7,1.9868999999999999,6.74529700,5.25579900,9.20655544,86.28936240,90.00000000,90.00000000
2931,LiVFeO4,1.9983999999999997,5.97014759,5.96610641,5.96581276,59.92180125,90.53846800,60.75868049
2932,LiCa2Nb3O10,2.0135,5.55501700,5.53906600,27.48011318,89.55089675,90.00000000,90.00000000
2933,Na6Sn2O7,1.9928999999999997,6.24318600,9.35190700,18.47964737,63.67895797,90.00000000,90.00000000
2934,NaVAsCO7,2.0029,9.45442818,6.50636001,5.51388099,89.99916403,86.74998356,89.99439185
2935,Nb9VO25,1.9967,11.50270604,11.50270604,11.50270604,91.63062595,91.63062595,160.57680290
2936,KLiNiO2,1.9838,5.81329211,7.57495462,6.63140338,77.35019679,106.57706641,81.94612800
2937,Hf2N2O,1.9855,8.71845700,8.72425384,8.72788604,109.49837815,109.23486039,109.48997634
2938,Ti3Fe2Ni(PO4)6,1.9837000000000002,8.52006627,8.52006627,8.52006669,61.11508040,61.11508040,61.11508413
2939,LiMnF4,1.9808999999999999,4.66514639,4.66514639,3.19117788,87.21933924,87.21933924,86.68629863
2940,Li2FeO2F,2.0035,5.20405441,5.20405441,9.88584279,84.95999836,84.95999836,120.94643357
2941,LiFeB2O5,2.0157,10.83602400,5.48391800,12.02367401,79.41100991,90.00000000,90.00000000
2942,CrFe2(PO4)3,1.9998,8.41161380,8.41161380,8.41161396,61.60072097,61.60072097,61.60071638
2943,Sb2(SeO4)3,1.9977,9.75879100,9.27270100,15.76693310,55.52351763,90.00000000,90.00000000
2944,Li5Cu(PO4)2,1.9945999999999997,5.33075000,6.21188206,9.95261472,90.05458698,90.09321507,90.11288745
2945,Hf2N2O,1.9970999999999997,8.69348600,8.73050174,8.74511498,109.36119292,109.50726776,109.37724735
2946,Hf2N2O,1.9892000000000003,8.71451800,8.72346206,8.73681297,109.39394182,109.41155109,109.46029982
2947,Hf2N2O,2.0039,8.72074200,8.72551587,8.73152233,109.39531526,109.41691779,109.50478539
2948,Hf2N2O,1.9985,8.68941100,8.73010626,8.74878820,109.44860277,109.33947760,109.31668465
2949,Hf2N2O,1.9855,8.70888200,8.72202562,8.73070595,109.31462008,109.46606068,109.40706285
2950,Li7CuO4,1.992,6.68673800,6.68673800,4.73103000,90.00000000,90.00000000,90.00000000
2951,Hf2N2O,2.0011,8.71977800,8.73047378,8.73829872,109.37496024,109.48809169,109.41164738
2952,Na5LaO4,2.0012,11.11910100,11.13595800,11.14442700,90.00000000,90.00000000,90.00000000
2953,LiCr4(PO4)3,1.9794999999999998,6.51519600,10.10047600,15.80746200,90.00000000,90.00000000,90.00000000
2954,V6O5F19,2.012,5.39728300,5.58785352,14.81960235,100.51945481,89.85346253,91.47778362
2955,LiCrPH2O5,1.9992999999999999,5.03217000,10.40504600,17.28840900,90.00000000,90.00000000,90.00000000
2956,LiFe2Si2O7,2.0061999999999998,12.99193200,5.66627000,10.43580018,58.42138059,90.00000000,90.00000000
2957,Rb2S,1.9912,5.54261125,5.54261125,5.54261125,60.00000000,60.00000000,60.00000000
2958,K2ZnO2,1.9791999999999996,6.67608039,6.67608039,6.67608039,131.34620600,125.69696422,75.87102282
2959,NaGdS2,2.0016,7.08321650,7.08321650,7.08321626,33.07906836,33.07906836,33.07907071
2960,RbNaO,1.9907,4.12994100,4.12994100,6.65049700,90.00000000,90.00000000,90.00000000
2961,AgIO3,2.0109,5.91506400,6.64581700,8.44508400,90.00000000,90.00000000,90.00000000
2962,MnV4NiO12,2.0117000000000003,6.82946831,6.82946831,5.86392339,74.55604942,74.55604942,84.04224498
2963,LiMn2P2H9O13,2.0038,5.62939700,9.06396200,10.16317800,90.00000000,90.00000000,90.00000000
2964,LiCo3OF5,2.0078,8.40263600,8.44944400,8.44949181,109.04752303,109.14774928,109.24661240
2965,Li2CrFeO4,1.9890999999999996,6.64665438,6.64665438,5.13403848,82.72843745,82.72843745,83.95551426
2966,LiFeSiO4,1.9954999999999998,4.91198300,6.30860400,9.13467800,90.00000000,90.00000000,90.00000000
2967,Li8VO5F,2.0063,5.64671197,5.64671197,10.92071300,90.00000000,90.00000000,119.99999960
2968,CdPS3,1.9889000000000001,8.19684644,8.19684644,8.19684622,45.19073362,45.19073362,45.19073660
2969,Sr3BPO3,2.0115,5.30854180,5.30854180,12.78243700,90.00000000,90.00000000,119.99999753
2970,WSCl4,1.9837,6.98898800,8.00985811,8.10862216,76.65848285,78.38776505,79.45205200
2971,SrReN3,2.0124000000000004,7.65557086,7.65557086,6.28829696,77.39251392,77.39251392,86.90638803
2972,Cs2NaInBr6,1.9899,8.03042080,8.03042080,8.03042080,60.00000000,60.00000000,60.00000000
2973,MgCr2P2O9,2.0133000000000005,6.31151200,7.29632500,14.13482700,90.00000000,90.00000000,90.00000000
2974,ZnCr2P2O9,2.0124999999999997,6.28839000,7.39118100,14.11220800,90.00000000,90.00000000,90.00000000
2975,MgV2(PO4)2,1.9824000000000002,4.79542437,8.51077215,15.90936357,86.48153225,81.33188717,73.63670681
2976,MgFe2P2O9,2.0058,6.31523100,7.38181100,14.23509200,90.00000000,90.00000000,90.00000000
2977,BaMgCoF7,2.0027,9.92850400,5.66141900,9.60242696,86.80529438,90.00000000,90.00000000
2978,BaCaNiF7,1.9797,10.59476800,5.69964700,9.92422346,88.22881938,90.00000000,90.00000000
2979,SnO2,2.0048999999999997,5.15095544,5.15095544,5.15095564,36.59371966,36.59371966,36.59371688
2980,VZnP2O7,1.9868999999999999,8.56148200,7.11496100,9.19380238,66.93272657,90.00000000,90.00000000
2981,CaNiO2,2.0118,3.16846300,8.17190074,8.93616114,111.02658341,99.97209618,89.16022460
2982,Mg(FeO2)2,2.0114,2.92711900,7.66377404,8.07589670,70.99536836,79.86064063,79.14914704
2983,Y2Cr3O12,2.0049,16.13413985,15.62247818,5.99175428,83.97430927,74.35204725,21.67364348
2984,MgSbO3,1.996500000000001,5.54272800,5.46965000,9.71737871,56.22988207,90.00000000,90.00000000
2985,YSnO3,1.9795999999999996,5.93252900,5.66211700,10.26570904,56.89690748,90.00000000,90.00000000
2986,SrMo(PO4)2,1.9877000000000002,5.72047468,7.13519840,9.33753936,111.17623594,100.85610269,98.01423764
2987,Mg2NiWO6,1.9868000000000001,5.22044400,5.01154900,9.62714722,59.56554520,90.00000000,90.00000000
2988,YAg(WO4)2,1.9943000000000004,5.23623900,6.01014299,6.25316269,110.82090215,112.33021744,89.62028110
2989,Mg2MoWO6,2.0028999999999995,5.67150836,5.67150836,5.67150784,55.46886646,55.46886646,55.46886940
2990,MgFeAsO5,1.9847000000000001,6.14053900,8.11970600,8.50679600,90.00000000,90.00000000,90.00000000
2991,MgAsWO5,2.0029,6.08182100,7.97665000,9.24580700,90.00000000,90.00000000,90.00000000
2992,Ca(MoO2)2,1.9881999999999995,5.60515800,6.46603100,11.23574000,90.00000000,90.00000000,90.00000000
2993,MgSnAs2O7,2.0044,9.32886700,7.61175000,9.99900533,61.57420743,90.00000000,90.00000000
2994,Nb2Zn2SnO8,1.9950000000000006,10.91180241,10.91180241,5.40533560,89.07484440,89.07484440,32.26545937
2995,Sn(GeO3)2,1.9960999999999998,6.85867162,6.85867162,5.65510757,76.89802676,76.89802676,83.96344693
2996,ZnSn(GeO3)2,1.9923000000000002,7.47636985,7.47636985,5.67689268,76.68638851,76.68638851,88.06483669
2997,Zn3Fe4(WO4)6,2.0074000000000005,7.21697500,8.41068556,10.33678072,105.07654553,104.32145365,101.26237508
2998,CaCo(GeO3)2,1.9853,9.11333700,5.34203500,10.36411411,75.06945885,90.00000000,90.00000000
2999,CaV2(PO4)2,2.0140000000000002,8.90887803,8.90887803,17.49409403,64.26735978,64.26735978,32.66598710
3000,CaMnO2,2.0435,3.21286000,5.72564200,11.40294800,90.00000000,90.00000000,90.00000000
3001,P2S7,2.0233,6.41321400,6.62408516,11.67301732,82.25173538,88.46963082,85.83522035
3002,Na2Zn3S4,2.0222,8.72099499,8.72099499,8.72099499,141.08358228,108.60454627,84.42793317
3003,ZnS,2.0471,3.85250235,3.85250235,12.60818100,90.00000000,90.00000000,120.00000595
3004,KNbN2,2.0359,5.97472900,11.95337500,16.82529500,90.00000000,90.00000000,90.00000000
3005,Rb3W2N5,2.046,10.68722660,10.68722660,10.68722660,102.17738224,102.17738224,125.31857057
3006,Mg14CoNiO16,2.0385,8.52219500,8.51743400,4.23618800,90.00000000,90.00000000,90.00000000
3007,CaMg14MnO16,2.0188999999999995,8.62864500,8.62864500,4.33926000,90.00000000,90.00000000,90.00000000
3008,Mg30VNiO32,2.0427,8.51781620,8.51781620,8.52043560,90.00000000,90.00000000,90.00000000
3009,LiMg30CoO32,2.0227999999999997,8.50190300,8.50190300,8.51076900,90.00000000,90.00000000,90.00000000
3010,CsMg30FeO32,2.0296000000000003,8.67513800,8.67513800,8.65895000,90.00000000,90.00000000,90.00000000
3011,GeO2,2.0278,2.90467400,4.42882200,4.52662600,90.00000000,90.00000000,90.00000000
3012,RbHoSe2,2.0379,8.35923339,8.35923339,8.35923376,29.29961177,29.29961177,29.29961681
3013,Zn3CdSe4,2.0469,5.85995000,5.85995000,5.85995000,90.00000000,90.00000000,90.00000000
3014,CdNCl3,2.0314,7.51150245,7.51150245,7.40240700,90.00000000,90.00000000,94.29612324
3015,C3NCl,2.0463,8.06876400,4.89344500,6.32973230,71.14966370,90.00000000,90.00000000
3016,Na2Zn2S3,2.031,7.45737800,7.45737800,11.27326000,90.00000000,90.00000000,90.00000000
3017,SrFe2S2O,2.0437,3.95793501,6.47853501,9.74139302,89.99903082,90.00736205,90.00371463
3018,K2AgAu,2.0218999999999996,12.75585197,12.75585197,12.75585197,121.27500804,119.65102869,89.20571678
3019,BaAuCl,2.0212000000000003,5.23429855,5.23429855,5.23429855,60.00000000,60.00000000,60.00000000
3020,Zr2N2O,2.0269000000000004,5.53503900,5.53503900,5.92697456,61.68925089,61.68925089,61.00750554
3021,Rb3TmO3,2.0446,7.32418132,7.32418132,7.24047283,85.16568172,85.16568172,116.65335109
3022,Mo2P2O11,2.0454,6.43769600,7.60702149,9.15373869,74.81038141,89.83335905,89.90041991
3023,Y3TaO7,2.0473999999999997,8.16658381,8.16658381,5.37517900,90.00000000,90.00000000,125.50806050
3024,Ta3InO9,2.0195999999999996,6.39939900,7.64009200,12.71663900,90.00000000,90.00000000,90.00000000
3025,NaCr3O8,2.0443,5.57587600,6.72861400,8.66483600,90.00000000,90.00000000,90.00000000
3026,Tb3Se2NO,2.0437,8.04700209,8.04700209,9.76545942,82.85025727,82.85025727,28.33431440
3027,LiAu(S2O7)2,2.0278,5.54264500,6.72030161,8.61726692,106.60315498,91.95161822,102.90386500
3028,PrCrO3,2.0419,5.51079900,5.63296700,7.83941300,90.00000000,90.00000000,90.00000000
3029,K2LiBiI6,2.0274,8.53396426,8.53396426,8.53396426,60.00000000,60.00000000,60.00000000
3030,K2NaInBr6,2.0334,7.91589920,7.91589920,7.91589920,60.00000000,60.00000000,60.00000000
3031,Cs2TlSbCl6,2.0339,8.09915865,8.09915865,8.09915865,60.00000000,60.00000000,60.00000000
3032,K2ScInI6,2.04,8.77140082,8.77140082,8.77140082,60.00000000,60.00000000,60.00000000
3033,Cs2LiBiI6,2.0412999999999997,8.63497447,8.63497447,8.63497447,60.00000000,60.00000000,60.00000000
3034,K2Hg3(GeS4)2,2.0282,6.55276837,6.55276837,9.88572211,86.47150854,86.47150854,83.26255489
3035,Rb2NdCuI6,2.0401,8.47037839,8.47037839,8.47037839,60.00000000,60.00000000,60.00000000