,pretty_formula,bandgap,cell_length_a,cell_lentgh_b,cell_lentgh_c,cell_angle_alpha,cell_angle_beta,cell_angle_gamma
6134,LiCoAsO4,2.2329999999999997,5.86507563,10.11084762,5.86445274,72.79632123,118.43636215,89.54917287
6135,Li4CoTeO6,2.2623000000000006,5.22586251,5.22586251,5.22752736,79.78013298,79.78013298,119.52648772
6136,Li3Al(CoO3)2,2.2347000000000006,2.90605076,2.90605076,14.46545300,90.00000000,90.00000000,120.00001726
6137,La2Ti2ZnO8,2.2363999999999997,3.72331200,3.72331200,12.78626200,90.00000000,90.00000000,90.00000000
6138,La2Ti2CoO8,2.2568,5.25941074,5.25940367,25.81640081,84.15255696,84.15309468,89.99932212
6139,La2CrFeO6,2.254600000000001,5.60191000,5.60449902,7.91237904,89.98888070,90.00016148,89.99995911
6140,KNbCl6,2.2532,7.47990921,7.47990921,7.47990969,58.37081550,58.37081550,58.37081695
6141,KSr2Nb5O15,2.2445000000000004,12.67923289,12.67923289,4.05802500,90.00000000,90.00000000,90.16289119
6142,K6Sb2H18S8O9,2.2502999999999997,7.80879300,12.92692300,13.96918296,89.60619560,90.00000000,90.00000000
6143,Gd3Si2BrO8,2.2390999999999996,10.33129983,10.33129983,10.33129983,144.26020196,140.42741937,54.37369586
6144,CsZnFeF6,2.2369,7.52718641,7.52718641,7.52718641,120.64953581,120.08738620,89.36367999
6145,CsCrCoF6,2.2439999999999998,7.49578129,7.49578129,7.49578129,120.56537561,120.45258211,89.12068872
6146,CsNa5(FeO3)2,2.2614,12.12887861,12.10470115,9.31787699,67.52443616,67.24995853,45.22560530
6147,CsMo2P3O13,2.2656,6.45594700,9.96318635,10.28450499,83.10821727,82.34185534,71.86426525
6148,CaLa2ZrO6,2.2517000000000005,5.98081946,5.98081946,5.98081946,60.00000000,60.00000000,60.00000000
6149,BiPbO2F,2.2344999999999997,4.00055877,4.00055877,6.51162136,89.15370553,89.15370553,60.13223260
6150,BaSr3Ca2(MoO6)2,2.2561,10.26947275,10.26947275,10.26947283,33.56352073,33.56352073,33.56351675
6151,Ba3SrCa2(MoO6)2,2.2633,5.98469000,5.98469000,8.46328900,90.00000000,90.00000000,90.00000000
6152,Ba4Cu2IBrO4,2.2401999999999997,4.38759800,7.59772800,10.40202644,75.80208470,90.00000000,90.00000000
6153,BaBiNO5,2.2456,8.41266133,8.41266133,6.22740512,89.88856274,89.88856274,138.79439215
6154,B8O,2.2626,5.13987461,5.13987461,9.14588255,72.79051290,72.79051290,62.30262546
6155,AlGa3N4,2.2393,3.19312100,5.19139700,5.52885905,89.96461022,90.00000000,90.00000000
6156,Y2MgS4,2.2668,7.20255167,7.20255167,7.20255167,110.54997196,110.54997196,107.33461411
6157,Er2MgSe4,2.2316,7.41676100,8.59418448,13.83045713,99.06601013,95.34277800,89.98083959
6158,Tm2MgSe4,2.2626999999999997,7.39196600,8.56252710,13.80262497,99.03050735,95.28939617,89.99114051
6159,Dy2MgS4,2.2619,7.18467344,7.18467344,7.18467344,110.53791814,110.53791814,107.35826420
6160,Ho2MgSe4,2.2328,7.45062000,8.63650013,13.81912459,99.13621559,95.40184281,90.00993131
6161,La2MgS4,2.2632000000000003,4.04206300,13.24787300,14.14277200,90.00000000,90.00000000,90.00000000
6162,Lu2MgSe4,2.2387,7.33265300,8.48904379,13.80886821,98.91907022,95.18505817,89.96279067
6163,Dy2CrFeO6,2.2668999999999997,5.63088300,5.31119100,9.34044906,55.30509127,90.00000000,90.00000000
6164,H4CSIN2,2.2549,11.78471506,11.78471506,10.01988573,64.97243220,64.97243220,26.44990135
6165,TiO2,2.2485,10.41933835,9.86497099,10.43780698,90.22539413,89.68104552,94.00703299
6166,ZnSi7N10,2.2512999999999996,6.70042093,6.91190700,9.70545867,90.00000000,103.79377342,90.00000000
6167,YAl2N3,2.242,5.85702247,5.78360565,5.16211600,90.00000000,90.00000000,119.58621576
6168,K3Si3N5,2.2451,5.58249441,7.21969027,8.23381505,105.76625683,94.69039518,100.90571184
6169,Sr4Nb3PO14,2.2628000000000004,4.04962381,5.73717332,13.55484110,93.66529583,98.66173879,90.43305329
6170,Na8Al11Si13(AgO16)3,2.2457000000000003,12.67576463,12.46623500,11.81385768,89.89501664,88.95720052,89.79850048
6171,Co3(PO4)2,2.2525,4.79353547,6.01343008,10.34817429,90.80807674,89.53584989,90.28628648
6172,NdSbO4,2.2377999999999996,5.55912300,7.74260500,7.77257791,79.83874247,90.00000000,90.00000000
6173,BaO,2.2561,3.97032255,3.97032255,3.97032255,60.00000000,60.00000000,60.00000000
6174,Ca(GaSe2)2,2.2626999999999997,15.09142586,12.47352715,12.43271931,74.59129261,52.82760374,52.58110365
6175,AlTlO2,2.2543999999999995,5.71726945,5.71726945,5.71726945,60.00000000,60.00000000,60.00000000
6176,K2RbPdF5,2.2422,7.35296400,7.35296400,6.35873000,90.00000000,90.00000000,90.00000000
6177,KGeSbO5,2.2580999999999998,6.70513000,10.94520900,13.46721400,90.00000000,90.00000000,90.00000000
6178,CsK4GaO4,2.2621,6.77827600,11.74513600,21.15704500,90.00000000,90.00000000,90.00000000
6179,NaNb3O8,2.2477000000000005,7.35116854,7.35116854,7.35116854,121.52247622,118.81552417,89.72359884
6180,ZnNi(GeO3)2,2.2377000000000002,5.25464628,6.70687548,6.70752071,85.72431544,80.32134256,80.31922792
6181,C11F7,2.2359999999999998,6.13417845,6.13417845,13.79451585,85.79723518,85.79723518,82.00049108
6182,CrSb(PO4)2,2.2645999999999997,10.89059141,5.89276301,4.94989417,90.00126619,95.56940692,89.99203544
6183,SrCo(GeO3)2,2.2382,7.99035736,8.02282252,9.81335400,76.32047399,109.21471229,71.79756834
6184,BaAgTeF,2.2381,4.58337300,4.58337300,9.83437000,90.00000000,90.00000000,90.00000000
6185,NaAlSe2,2.2333,7.65442031,7.65442031,14.30893162,82.26648039,82.26648039,90.00570577
6186,Sm2MoO6,2.2457000000000003,10.12928206,10.12928206,5.52237557,75.16988260,75.16988260,68.44835803
6187,Nb9PO25,2.2459000000000002,11.42724102,11.42724102,11.42724102,91.64959915,91.64959915,160.46306000
6188,Na5VO5,2.2396,5.85936500,6.67406600,16.29542900,90.00000000,90.00000000,90.00000000
6189,Fe3PO7,2.2333,5.25253419,5.25253419,5.25253414,101.94476388,101.94476388,101.94476700
6190,CsMnO4,2.231,6.00301600,8.16278000,10.22816300,90.00000000,90.00000000,90.00000000
6191,Sr2CaMoO6,2.2556000000000003,5.81094700,6.13299000,8.33586300,90.00000000,90.00000000,90.00000000
6192,BaEr2NiO5,2.264,3.78097469,5.76704051,6.63639110,115.75356217,106.55088544,90.00000001
6193,BaHo2NiO5,2.2548000000000004,3.78935828,5.78512228,6.65924058,115.74508675,106.53008698,90.00000005
6194,Ca3MnZnO6,2.2432000000000003,6.46117797,6.46117797,6.46117810,92.02983200,92.02983200,92.02983783
6195,BaY2NiO5,2.2417,3.80304591,5.81773960,6.70056399,115.72951023,106.48626614,90.00000003
6196,MnSi2O5,2.2656,5.23912064,5.23912064,6.67769626,74.78461757,74.78461757,103.45545545
6197,Ni(AsO3)2,2.2427,4.84553663,9.04108000,4.84553600,90.00000000,119.99999569,90.00000000
6198,AlWO4,2.2667,5.46270533,5.46270533,4.63107032,88.00711698,88.00711698,64.28263086
6199,BaDy2NiO5,2.2452,3.79841606,5.81121627,6.68910469,115.74579976,106.49463704,89.99999996
6200,V(PO3)3,2.2645,7.48248781,7.48248781,9.62300523,57.37460699,57.37460699,51.98911634
6201,PbS,2.2577,4.25470597,4.25470597,11.37018900,90.00000000,90.00000000,90.11236218
6202,CrBPbO4,2.2358,6.03593300,7.07735300,8.21665000,90.00000000,90.00000000,90.00000000
6203,V2PbO6,2.2575000000000003,3.71437716,8.33687202,9.67269494,108.44912811,90.00000000,102.87166510
6204,TeO2,2.2370000000000005,5.59917800,5.74772500,12.28466400,90.00000000,90.00000000,90.00000000
6205,RbFe(SeO4)2,2.2466999999999997,9.11341300,10.32836960,10.32836909,61.25463165,90.00125199,90.00117472
6206,SiSe2,2.2369,7.03583053,7.03583053,7.03583053,100.20558128,100.20558128,130.21358566
6207,LiInMo3O8,2.2496,5.84760074,5.84760074,5.09097300,90.00000000,90.00000000,120.00000832
6208,TlI,2.2503,4.28759800,4.28759800,4.28759800,90.00000000,90.00000000,90.00000000
6209,AsI3,2.2513,8.61184317,8.61184317,8.61184261,51.07233755,51.07233755,51.07233639
6210,Bi2O3,2.2487999999999992,8.27644700,5.93334900,7.52775057,67.52812651,90.00000000,90.00000000
6211,Sr2Bi2O5,2.2583000000000006,6.25426300,7.75965100,14.62049700,90.00000000,90.00000000,90.00000000
6212,Co3B7IO13,2.2408999999999994,8.66489074,8.66489074,8.66489074,60.00000000,60.00000000,60.00000000
6213,Li3Fe3(PO4)4,2.2351,11.27713600,6.09324600,8.86057181,79.52470008,90.00000000,90.00000000
6214,LiCu(PO3)2,2.2336,7.57894289,7.57894289,4.78514510,74.49965243,74.49965243,91.76185050
6215,LiMn2P5O16,2.2386999999999997,6.82419100,5.10453200,18.30522270,89.14865546,90.00000000,90.00000000
6216,V(PO3)3,2.2460999999999998,8.55569200,8.59838300,8.71541200,90.00000000,90.00000000,90.00000000
6217,LiFeP2O7,2.2499000000000002,6.45643900,9.36849740,10.52043203,114.54265630,85.90295394,107.10015342
6218,LiFeP2O7,2.2378,8.38501700,6.70051500,9.19989195,76.32627001,90.00000000,90.00000000
6219,Li3Fe3(PO4)4,2.2457,10.10666923,10.10666923,10.61628770,88.95794134,88.95794134,36.94197969
6220,Na8Ga2O7,2.2590000000000003,11.10286700,8.73675900,10.15465850,72.38394578,90.00000000,90.00000000
6221,Cs2TiCl6,2.2538,7.47189270,7.47189270,7.47189270,60.00000000,60.00000000,60.00000000
6222,Ge2S3I2,2.2528,11.33557755,11.33557755,10.01205900,90.00000000,90.00000000,119.99999740
6223,NaNbCl6,2.2385,7.07772000,6.65665000,19.92670230,89.49490207,90.00000000,90.00000000
6224,Tl2PS3,2.2405,11.72750700,13.89630800,16.75785800,90.00000000,90.00000000,90.00000000
6225,RbLiO,2.2574,3.55986700,6.60523300,9.11751400,90.00000000,90.00000000,90.00000000
6226,CsBr2F,2.2352999999999996,4.39231800,4.39231800,7.37259300,90.00000000,90.00000000,90.00000000
6227,PSe,2.2456,7.43937500,12.35929300,12.77919150,64.01252930,90.00000000,90.00000000
6228,Hg3TeCl4,2.2498,12.09256400,12.77377000,13.10447800,90.00000000,90.00000000,90.00000000
6229,VHgO3,2.2382,3.65000400,5.07219944,8.79435864,92.74675440,101.57160639,92.81175322
6230,Cs2PtCl4,2.2321,7.52691595,7.52691595,9.64487100,90.00000000,90.00000000,90.06313768
6231,LiGaI3,2.2483000000000004,11.57686900,7.28492700,8.61615476,87.77452091,90.00000000,90.00000000
6232,RbBiO2,2.2335000000000003,6.00871606,6.00871606,6.09947392,67.47566767,67.47566767,93.82630117
6233,Cs(SO2)2,2.2331,16.00406500,7.84812700,9.85507865,81.59289324,90.00000000,90.00000000
6234,Bi4I2O5,2.2338,5.81232500,11.49694600,15.19819164,79.75548642,90.00000000,90.00000000
6235,V2Te2O9,2.2329,9.75361600,7.36433800,10.25448417,84.84023908,90.00000000,90.00000000
6236,Tl2TeBr6,2.2371999999999996,7.62599300,7.62599300,11.19473400,90.00000000,90.00000000,90.00000000
6237,Ca(PrS2)2,2.2359000000000004,7.47414047,7.47414047,7.47414047,109.63547807,109.63547807,109.14320288
6238,CaTiO3,2.2469000000000006,5.48091573,5.48091573,5.48091573,120.76808315,120.76808315,88.67471085
6239,NdPS4,2.2595,12.46772949,12.46772949,12.46772949,127.43213623,127.43213623,77.54676795
6240,SrTeO4,2.2503,5.10352700,5.66068900,13.28230100,90.00000000,90.00000000,90.00000000
6241,TiO2,2.2317,4.91444000,4.85460200,5.09281305,79.88265217,90.00000000,90.00000000
6242,CsHoS2,2.2477,8.38877327,8.38877327,8.38877289,28.16905438,28.16905438,28.16905611
6243,NaH6BrO5,2.2572,5.52612400,6.48748774,9.08716129,107.36601095,87.84369597,109.40785352
6244,CdInBr3,2.2577999999999996,4.19910400,9.60093200,15.68105600,90.00000000,90.00000000,90.00000000
6245,Mg(GaO2)2,2.2576,5.93530032,5.93530032,19.65270302,81.47070874,81.47070874,60.48038099
6246,Ho2TiO5,2.2482,7.41089067,7.41089067,17.77621955,89.47158481,89.47158481,58.75277637
6247,LiGa5O8,2.2544000000000004,5.84157300,5.94309000,8.29703500,90.00000000,90.00000000,90.00000000
6248,Cr2Te4O11,2.2462999999999997,7.74043600,7.12174100,9.92852819,80.50600201,90.00000000,90.00000000
6249,LiInI4,2.2465,7.88047500,8.38993200,15.45342353,87.22138946,90.00000000,90.00000000
6250,HgNO2,2.2563,10.74107000,4.66116700,6.58884548,70.26154916,90.00000000,90.00000000
6251,BaCr2O4,2.2386,5.26924900,6.07331200,12.43963000,90.00018646,90.00034440,90.00016102
6252,As2S3(NF6)2,2.242,7.69953298,7.69953298,10.89052593,88.09652866,88.09652866,67.90746084
6253,As2Se2S(NF6)2,2.2391,7.79320832,7.79320832,10.94276890,87.08507897,87.08507897,68.74913788
6254,NaGdTiO4,2.2462,5.31102600,5.42328500,12.65408700,90.00000000,90.00000000,90.00000000
6255,SbP2O7,2.2392999999999996,16.33308300,8.22587000,8.31073107,89.82207439,90.00000000,90.00000000
6256,HfNCl,2.2365999999999997,10.08772825,10.08772825,10.08772810,20.45521405,20.45521405,20.45521041
6257,KAgCO3,2.2459000000000002,11.19519102,11.19519102,11.19519102,149.67648900,148.54306643,44.25663703
6258,K2LaP2S7,2.2563000000000004,6.93051800,9.27786300,21.35217667,71.13974000,90.00000000,90.00000000
6259,Li3ScN2,2.2440999999999995,8.71520508,8.71520508,8.71520508,109.47122063,109.47122063,109.47122063
6260,GeS2,2.2569,12.88488966,12.02529386,6.95789888,80.71504596,67.08135273,32.20360132
6261,C2Se3N2,2.231,4.85220700,10.24817100,14.01218900,90.00000000,90.00000000,90.00000000
6262,Na3SO4F,2.2521,5.76033500,5.76033500,5.76033500,90.00000000,90.00000000,90.00000000
6263,BaZnSO,2.2367,6.81844131,6.81844131,6.19643500,90.00000000,90.00000000,145.95893271
6264,PbO,2.2424000000000004,5.45170000,5.79079000,5.95512000,90.00000000,90.00000000,90.00000000
6265,Na4CO4,2.2476,4.75112085,4.75112085,4.75112135,89.14381166,89.14381166,89.14381698
6266,Ba3Ga2(Ge2O7)2,2.2604999999999995,8.70978742,8.70978742,5.09435500,90.00000000,90.00000000,119.99999560
6267,CsAs3O8,2.2578,7.39539849,7.39539849,7.77673326,76.83435034,76.83435034,107.83989987
6268,Na5Li3(TiS4)2,2.2479,10.09720047,10.09720047,12.17683231,52.95637746,52.95637746,57.47672668
6269,P3IrO9,2.2494000000000005,11.78159385,11.78159385,9.52493617,70.01381227,70.01381227,111.24425489
6270,SbP(Cl3O)2,2.2525,12.05493000,8.91593600,11.37702813,71.21254857,90.00000000,90.00000000
6271,KUI3O11,2.2593,7.39988900,11.68474500,26.00635300,90.00000000,90.00000000,90.00000000
6272,NaTbMnWO6,2.2626999999999997,5.67384900,5.48311000,8.00799356,89.96428312,90.00000000,90.00000000
6273,P4S(NF)6,2.2497,11.86889200,9.62541600,20.69857422,76.77492839,90.00000000,90.00000000
6274,Ni(XeF7)4,2.2405999999999997,12.73416005,12.73416005,18.03804633,58.97507813,58.97507813,25.98040525
6275,AlSeS2N2Cl5,2.2431,11.06822100,9.59414700,14.88642782,51.90727744,90.00000000,90.00000000
6276,NbPO5,2.2614,5.42506500,6.80100000,11.47263800,90.00000000,90.00000000,90.00000000
6277,RbNa3SnO4,2.2521,11.92880487,11.92880487,11.92880487,114.15612915,114.15612915,100.46011283
6278,KBi(PS3)2,2.2314000000000003,7.57116300,6.75892600,10.05756110,87.78096277,90.00000000,90.00000000
6279,SbI(OF4)2,2.2626999999999997,10.24871200,5.90337500,12.95598407,77.45283771,90.00000000,90.00000000
6280,KV2PO8,2.239,4.83794600,13.94843400,20.56934700,90.00000000,90.00000000,90.00000000
6281,K3CuP2S7,2.2349,6.76311500,13.41186000,15.36449894,81.41621572,90.00000000,90.00000000
6282,LiUAsO6,2.2661000000000002,5.23643600,10.29102395,11.21215439,65.09361733,76.78021746,76.47871547
6283,K3VH2(CO5)2,2.2603,7.94824200,7.27015500,17.78189307,81.23396586,90.00000000,90.00000000
6284,CsMo2P3O13,2.2520999999999995,8.63192500,7.84030000,9.16652122,79.21646000,90.00000000,90.00000000
6285,UTe6(OF5)6,2.2652,10.02324228,10.02324228,10.36681714,77.25794585,77.25794585,116.28622478
6286,AsSXe2(OF3)3,2.2322000000000006,9.04619600,11.46513300,16.37718137,46.90473623,90.00000000,90.00000000
6287,Rb3Mo12PO40,2.2622,12.03358100,12.03358100,12.03358100,90.00000000,90.00000000,90.00000000
6288,K3Mo12PO40,2.2502,11.92757700,11.92757700,11.92757700,90.00000000,90.00000000,90.00000000
6289,P3IrO9,2.2455999999999996,5.09576300,7.06131196,10.47460106,98.38350658,92.41553330,92.52943281
6290,K2Ge2PbS6,2.2521999999999998,8.70638933,8.70638933,9.15311291,89.95415168,89.95415168,114.12648426
6291,Na6U(Mo2O9)2,2.2397,7.18867700,9.75490678,13.59822349,74.21140706,86.72866295,82.99681088
6292,CsErS2,2.2595,8.38219379,8.38219379,8.38219389,28.08958681,28.08958681,28.08958581
6293,GdBO3,2.2436000000000003,5.28102988,5.28102988,6.51839500,90.00000000,90.00000000,119.99999850
6294,Ca3Nb2CoO9,2.2582999999999998,5.50045100,9.72595500,16.80534492,55.70530158,90.00000000,90.00000000
6295,Na4Co3P4O15,2.266,6.59514200,10.64139800,18.24516200,90.00000000,90.00000000,90.00000000
6296,ReAsC5SNO5F7,2.2392,6.82286900,11.36689100,17.54944300,90.00000000,90.00000000,90.00000000
6297,Hg4Se4O9,2.253,10.56629300,9.97520100,15.29665178,53.29634092,90.00000000,90.00000000
6298,Li6Br3N,2.2583,14.02711322,14.02711322,14.02711322,131.49091313,131.09615052,71.34760519
6299,P4C2Se3N2,2.2422999999999997,6.85375900,12.51167900,14.24437576,72.46563389,90.00000000,90.00000000
6300,In4Br7,2.2648,16.50297492,16.50297492,16.50297581,27.39884763,27.39884763,27.39884945
6301,Rb2CuBr3,2.2507,4.46107400,13.33082300,13.82245800,90.00000000,90.00000000,90.00000000
6302,Rb2TeBr6,2.2447,7.88400728,7.88400728,7.88400728,120.46146692,120.46146692,89.20255710
6303,Ca3(AlN2)2,2.2617000000000003,5.83042300,9.58721200,9.60088437,68.42016718,90.00000000,90.00000000
6304,Cs2KMn3F12,2.2412,7.75147351,7.75147351,12.96440797,73.74254500,73.74254500,59.97243775
6305,GeS2,2.2648,16.42733200,6.85610000,12.56647674,88.91581590,90.00000000,90.00000000
6306,Co5Te4(BrO6)2,2.2494000000000005,10.74064935,10.74064935,16.55806177,56.78258215,56.78258215,28.75380679
6307,K3Fe2(PO4)3,2.266,9.56759564,9.56759564,16.98186191,65.64571136,65.64571136,60.32502284
6308,TaNO,2.2545999999999995,6.87111764,6.87111764,6.76544949,73.08717204,73.08717204,32.89909846
6309,V2PbO6,2.2635,3.67847900,9.96348700,13.08921300,90.00000000,90.00000000,90.00000000
6310,HgC2(SN)2,2.2496,4.09004124,5.89051004,6.55884894,94.00162489,89.97503789,110.33495840
6311,Pb3(IO)2,2.2333000000000003,6.04274500,7.74109600,18.35385100,90.00000000,90.00000000,90.00000000
6312,Cs2NbAgS4,2.2334,14.53175184,12.94237338,7.85136103,84.92517483,62.51553050,32.55929467
6313,SrLi2Ta2O7,2.2312,9.68669643,9.68669643,9.68669643,156.27387876,156.27387876,33.80267472
6314,Te(HO)6,2.2333,5.45482300,5.52978642,5.72655170,116.17440881,116.41188188,91.15443061
6315,BaNd2Ti3O10,2.2478,7.67602100,7.78485400,14.54373845,82.44806188,90.00000000,90.00000000
6316,Ga2I3,2.2526,8.81433100,7.75510700,13.70591350,56.92721345,90.00000000,90.00000000
6317,Co7Te4(BrO2)6,2.2653,11.30387280,11.30387280,14.83883329,58.30575192,58.30575192,44.94700907
6318,KAuC2(SN)2,2.2449,7.34684361,7.34684361,18.07212666,71.44077419,71.44077419,49.09365033
6319,Cs3H5Pt,2.2364,8.39819800,8.39819800,6.20662500,90.00000000,90.00000000,90.00000000
6320,CrC5SO7,2.2432,6.68962300,12.64696200,22.12043700,90.00000000,90.00000000,90.00000000
6321,POs6C18ClO18,2.2333,9.22224000,10.42822914,17.53574368,91.50209840,90.87121922,114.69370706
6322,PSeCl9,2.244,12.28979722,12.28979722,12.28979722,120.23845063,119.89890425,89.88134033
6323,RbCa2Ta3O10,2.239,3.94141900,3.94141900,15.31271800,90.00000000,90.00000000,90.00000000
6324,TeS7Cl2,2.2624999999999997,9.20488600,9.89320000,14.32853000,90.00000000,90.00000000,90.00000000
6325,Al22CdO34,2.2583999999999995,11.30031100,9.77799600,11.81072324,74.19632279,90.00000000,90.00000000
6326,La2Zr2O7,2.2394999999999996,3.70019900,7.71053100,11.15363100,90.00000000,90.00000000,90.00000000
6327,Ba9(LaS6)2,2.2419000000000002,7.80178730,7.80178730,14.81648761,84.96640101,84.96640101,119.99894255
6328,CaZr4O9,2.2314000000000003,15.78166895,15.78166895,6.50253640,86.55588061,86.55588061,12.75878592
6329,Li2TiO3,2.2521999999999998,5.91624652,5.91624652,13.22882006,77.04219297,77.04219297,89.28238362
6330,Ba4Ta2TiZnO12,2.2351,10.10342246,10.10342246,10.10342246,132.09728127,132.09728127,70.07542503
6331,Sr18ThCl40,2.2611,4.97431973,4.97431972,94.93835306,60.14490021,60.14490032,59.99889787
6332,Rb2NaNb6(PO8)3,2.251,8.57708915,8.57708915,8.57702942,75.52917762,75.52917762,104.44916863
6333,K4(BSe)9,2.2415000000000003,10.01924400,16.25828547,22.65691341,107.27622733,97.07200187,106.00675010
6334,Tl7Bi3I16,2.2653999999999996,14.66633706,14.66633706,36.88744400,90.00000000,90.00000000,119.56255261
6335,Al6ZnP4(H4O7)4,2.2588999999999997,8.75520400,8.81535520,9.50450890,72.04437383,69.93843131,63.76268795
6336,Na2Nb18Tl7(PO8)9,2.2487,8.61654600,8.62459288,23.57137640,90.36707068,90.04474741,104.79625749
6337,TiNiO3,2.2497999999999996,5.05743800,5.49684722,12.59469475,93.21074530,90.15717959,117.15883200
6338,Cu4H24C13N7Cl,2.237,10.44171423,10.44171423,10.07604701,87.24786915,87.24786915,111.92907839