,pretty_formula,bandgap,cell_length_a,cell_lentgh_b,cell_lentgh_c,cell_angle_alpha,cell_angle_beta,cell_angle_gamma
3450,Cr3(FeO6)2,2.0265,9.15171600,8.76839600,15.11339567,55.15709885,90.00000000,90.00000000
3451,Li2VF4,2.0303000000000004,8.87401821,8.87401821,8.87401830,108.79467278,108.79467278,108.79467711
3452,Li2VF5,2.039,5.51035900,7.42054500,19.25321100,90.00000000,90.00000000,90.00000000
3453,Li5Cu(PO4)2,2.0374000000000003,6.20241800,5.35645300,9.95536394,89.82783668,90.00000000,90.00000000
3454,Na4Bi2C4SO16,2.0267,10.61164822,10.52422481,10.19810692,61.58215187,60.72171207,57.69613606
3455,Hf2N2O,2.0465,8.71805900,8.72776843,8.73052262,109.54469499,109.28114059,109.41870632
3456,V6O5F19,2.0284,5.37837700,5.62311359,14.83136297,100.38171783,89.58446822,93.35484931
3457,Ti(FeO2)2,2.0259000000000005,6.11417206,6.10991313,10.41893991,74.92275972,74.95442375,60.99367753
3458,CaMnAs2(H3O5)2,2.0159000000000002,7.05119400,7.74502953,8.57751548,84.59965532,82.10451642,81.56884082
3459,Al2HgS4,2.0184,6.51838457,6.51838457,6.51838457,128.79592737,128.79592737,75.33915754
3460,Li2O2,2.0228,3.18036175,3.18036175,7.70352200,90.00000000,90.00000000,119.99999486
3461,SbH4NCl6,2.0339,6.96176199,6.96176199,12.32508883,79.59726995,79.59726995,55.22974371
3462,Li4Mn5Sn(PO4)6,2.0280000000000005,8.65459700,8.71264967,8.71580600,62.74117773,63.04628048,62.96335069
3463,LiVP2(HO4)2,2.0338000000000003,9.50690259,9.50690259,8.85238161,73.08860518,73.08860518,115.23734387
3464,LiVP2(HO4)2,2.0336,9.80926226,9.80926226,8.63062651,73.16334637,73.16334637,117.26634121
3465,Ba9La5I33,2.0466,13.16773000,13.21090490,25.17294704,99.66576536,99.79060689,108.82608203
3466,V4Cr2O13,2.0203,9.41057000,8.59376400,14.72341377,75.96779325,90.00000000,90.00000000
3467,ScAg(PS3)2,2.0349,6.22209136,6.22209136,14.57894300,90.00000000,90.00000000,119.99999322
3468,Sb2H8Pt(OF3)4,2.0244,5.06396600,7.88736458,8.62353563,69.40070239,83.77324171,75.81523156
3469,NdI3,2.0193,11.32680486,11.32680486,4.12503800,90.00000000,90.00000000,120.00000502
3470,Na2Hf2O5,2.0427,3.98568500,3.98568500,8.05648700,90.00000000,90.00000000,90.00000000
3471,CsNaSe,2.0454999999999997,5.03830000,5.03830000,8.22974400,90.00000000,90.00000000,90.00000000
3472,ErI3,2.0460000000000003,11.00894522,11.00894522,3.98025800,90.00000000,90.00000000,119.99999529
3473,Ca2SnS4,2.0321999999999996,7.33776400,8.68569300,10.97715200,90.00000000,90.00000000,90.00000000
3474,Ca2SnS4,2.0269999999999997,7.15729700,6.80156100,15.57905626,73.65680535,90.00000000,90.00000000
3475,K2CrH2F8,2.0316,8.10116400,5.34859500,8.42657027,87.32804317,90.00000000,90.00000000
3476,Ca2SnS4,2.0265,7.17077500,11.78263600,16.80750900,90.00000000,90.00000000,90.00000000
3477,Li2VCrP2(O4F)2,2.0331,5.22180400,7.35667272,10.53249195,104.06124619,97.67226065,108.59851059
3478,Li5Fe(P2O7)2,2.0377,7.01211200,8.71647817,9.19847623,79.46107311,79.35164588,70.05391703
3479,Na3AsSe3,2.0370999999999997,9.00727000,9.00727000,9.00727000,90.00000000,90.00000000,90.00000000
3480,Mg(AuF4)2,2.0243,5.82521900,5.60729600,11.03359765,70.43940577,90.00000000,90.00000000
3481,Ga2O3,2.0406,6.41420500,6.41420500,5.87615358,76.72488020,76.72488020,27.81126516
3482,AlP,2.0228,3.88554863,3.88554863,6.38157200,90.00000000,90.00000000,120.00001068
3483,YSeCl,2.0322999999999998,4.85764257,4.85764257,4.85764257,60.00000000,60.00000000,60.00000000
3484,Li8SeN2,2.0446,7.08228669,7.08228669,7.08228669,119.89127849,119.89127849,90.18841455
3485,Li6PS5I,2.0261000000000005,7.32071186,7.32071186,7.32071186,60.00000000,60.00000000,60.00000000
3486,ZnS,2.0349000000000004,3.85298038,3.85298038,18.90376100,90.00000000,90.00000000,120.00000654
3487,BaMoF7,2.0481,10.13988000,5.69711900,10.64107967,87.38185285,90.00000000,90.00000000
3488,BaBi4O7,2.0411,7.86975547,7.86975547,13.36174000,90.00000000,90.00000000,119.99999550
3489,Al5(FeO4)3,2.0439,5.77712866,5.77712866,14.09082433,89.92215570,89.92215570,59.95524326
3490,AlSnO3,2.0312,5.21653200,5.31744300,10.20113089,64.73593709,90.00000000,90.00000000
3491,Mn2Zn3(SiO4)3,2.0368,10.28019786,10.28019786,10.28019786,109.47122063,109.47122063,109.47122063
3492,Zn(SbO2)2,2.0455,6.52311200,7.18049627,17.13845314,89.19364348,88.82875252,63.08076787
3493,ZnCrAsO5,2.0237999999999996,6.19223000,7.94127200,8.32714700,90.00000000,90.00000000,90.00000000
3494,Ca3Mn3(AsO4)4,2.0393,5.24923600,9.28126100,17.66268476,63.00349168,90.00000000,90.00000000
3495,Mg3Fe3(AsO4)4,2.0229999999999997,5.23566700,8.66009100,16.27423041,68.50495843,90.00000000,90.00000000
3496,Zn(SnO2)2,2.0424,6.99925500,6.22312000,12.37834946,64.80353924,90.00000000,90.00000000
3497,Mg(BiO2)2,2.0241999999999996,6.92934888,6.92934888,10.46675025,68.10467168,68.10467168,28.39953158
3498,TiZn(GeO3)2,2.028,8.52313700,5.35399900,12.14343324,79.13821550,90.00000000,90.00000000
3499,MgCr3(P2O7)2,2.0166,7.92250400,7.32733900,9.58247837,71.62968996,90.00000000,90.00000000
3500,KMnO2,2.0755,5.89257763,6.37202194,6.57670811,113.84826739,90.00501450,89.99487677
3501,KInO2,2.0802,6.47963801,6.47963801,6.47963785,30.08350338,30.08350338,30.08350101
3502,LiMg14BO15,2.0691999999999995,4.28609200,8.40067200,8.58108000,90.00000000,90.00000000,90.00000000
3503,Mg30CoCO32,2.067,8.50141800,8.50141800,8.51592100,90.00000000,90.00000000,90.00000000
3504,Mg30CoBO32,2.0785,8.53780000,8.53780000,8.46335800,90.00000000,90.00000000,90.00000000
3505,YMg30BO32,2.0627000000000004,8.59185700,8.59185700,8.58779200,90.00000000,90.00000000,90.00000000
3506,RbSbS2,2.0737,6.68923100,6.73209645,12.28329773,99.05034247,100.66654303,104.43217724
3507,TaCu3S4,2.0730999999999997,5.56475200,5.56475200,5.56475200,90.00000000,90.00000000,90.00000000
3508,RbTaO3,2.0617,4.07122000,4.07122000,4.07122000,90.00000000,90.00000000,90.00000000
3509,RbErSe2,2.056,8.35170152,8.35170152,8.35170216,29.21931910,29.21931910,29.21932524
3510,C3IN,2.0715,8.54411800,5.35187500,5.96369687,86.69217046,90.00000000,90.00000000
3511,Pr2Se2O,2.0737999999999994,7.41069100,7.42272800,8.94898819,80.26026864,90.00000000,90.00000000
3512,ZnHC4O3,2.0593999999999997,15.29476641,15.29476641,15.29476693,117.84470261,117.84470261,117.84470305
3513,Na2Zn2S3,2.0493,7.06957200,7.01896300,7.04207794,61.92801129,90.00000000,90.00000000
3514,Ba7Sn3S13,2.0817,9.03606400,12.47045700,24.41472800,90.00000000,90.00000000,90.00000000
3515,GaFe2BO5,2.0831999999999997,3.05901200,9.67284900,12.41177800,90.00000000,90.00000000,90.00000000
3516,Rb4FeO4,2.0825,6.86861800,10.88933400,11.22330702,69.58491254,90.00000000,90.00000000
3517,Dy3NbO7,2.0672,8.17033609,8.17033609,5.37094700,90.00000000,90.00000000,125.35572356
3518,Lu3NbO7,2.0717999999999996,8.01483275,8.01483275,5.25338200,90.00000000,90.00000000,125.54555406
3519,NaLi2FePCO7,2.0707999999999998,6.66972800,8.62705956,10.09074970,92.00156846,90.09032078,90.14999626
3520,RbV2Fe(AgO4)2,2.0557999999999996,5.54177453,15.15381701,5.54175200,89.99849684,59.99887264,89.99607109
3521,Yb2GeS4,2.0642,6.66078000,6.49318400,7.67838830,72.42120925,90.00000000,90.00000000
3522,Zn(AgI2)2,2.0567,7.47974100,7.84452100,9.22643000,90.00000000,90.00000000,90.00000000
3523,CoBiAsO5,2.0721999999999996,5.37803275,7.73859656,11.42367922,93.92103517,96.52412901,70.75441440
3524,Na2ScAgF6,2.0718,6.22202490,6.22202490,6.22202490,60.00000000,60.00000000,60.00000000
3525,Na3IrF6,2.0509000000000004,5.93676247,5.93676247,5.93676247,60.00000000,60.00000000,60.00000000
3526,Na3InBr6,2.0568,7.85375865,7.85375865,7.85375865,60.00000000,60.00000000,60.00000000
3527,CsTbCdSe3,2.0651,8.47331189,8.47331189,11.23763900,90.00000000,90.00000000,150.45998401
3528,K2AlInBr6,2.0567,7.96569790,7.96569790,7.96569790,60.00000000,60.00000000,60.00000000
3529,CsDyCdSe3,2.0718,8.47040954,8.47040954,11.20570500,90.00000000,90.00000000,150.55935005
3530,K2AgBiCl6,2.0726999999999998,7.65908933,7.65908933,7.65908933,60.00000000,60.00000000,60.00000000
3531,Cs2TlAsCl6,2.076,7.88269912,7.88269912,7.88269912,60.00000000,60.00000000,60.00000000
3532,Cs2ScAuCl6,2.0622999999999996,7.50030284,7.50030284,7.50030284,60.00000000,60.00000000,60.00000000
3533,Rb2ScInI6,2.0620000000000003,8.79980671,8.79980671,8.79980671,60.00000000,60.00000000,60.00000000
3534,TaIn3Se4,2.0482,6.88464042,6.88464042,6.88464042,109.47122063,109.47122063,109.47122063
3535,LiGaSe2,2.0679999999999996,6.66225700,6.96638700,8.36314300,90.00000000,90.00000000,90.00000000
3536,Al2V3(SiO4)3,2.0668999999999995,10.18415044,10.18415044,10.18415044,109.47122063,109.47122063,109.47122063
3537,Li3CuS2,2.0826,6.97130510,6.97130510,6.97130510,131.81255472,128.53926020,73.15721688
3538,Li2VFeP2(HO5)2,2.0587,6.96682935,7.39202942,7.98973414,90.97522292,92.68691590,116.98155399
3539,Li2VBO4,2.0743000000000005,5.03323554,5.03323554,6.21703200,90.00000000,90.00000000,92.94712459
3540,Gd4As2O9,2.0723,7.39936257,10.92489165,12.30841470,90.00000000,107.13955043,90.00000000
3541,SiSe2,2.0597,6.63583709,6.63583709,6.63583709,126.90253482,113.64105002,89.91628689
3542,Si2H2O3,2.0533,10.79416965,10.79416965,14.03598764,56.63773090,56.63773090,51.19256191
3543,NaBrO2,2.0718,10.90258000,4.33187900,7.06394816,65.93473951,90.00000000,90.00000000
3544,LaBr3O7,2.0530999999999997,6.59239300,7.35479314,8.78639741,83.70478183,87.62760197,75.33706236
3545,KUVO6,2.0742000000000003,8.24549600,7.15717500,10.83928201,76.79679924,90.00000000,90.00000000
3546,CaPtO6,2.0756,6.65554630,6.65554630,7.17259220,89.65124908,89.65124908,120.47375987
3547,CoH10(SeO5)2,2.0541,8.01967109,8.01967109,10.77165037,63.50608294,63.50608294,66.44329450
3548,Ca(NO4)2,2.0836,5.09955202,5.09955202,14.56589381,78.65866846,78.65866846,81.78802445
3549,CoH32C8S4(NO5)2,2.0646999999999998,10.71477300,10.22095300,11.91130792,55.47521995,90.00000000,90.00000000
3550,Al2FeP2(HO)18,2.0716,5.31934800,6.99687644,11.72707284,100.32285139,89.18185980,110.07266198
3551,LiFe(GeO3)2,2.0711,6.72971491,6.72971491,5.60433104,74.88718433,74.88718433,81.15766682
3552,BaBr2O,2.0687,4.77769500,9.03121400,10.88714900,90.00000000,90.00000000,90.00000000
3553,LaTl2P2S7,2.0774000000000004,11.01019196,11.01019196,9.42625236,72.45438545,72.45438545,35.72654946
3554,Na2FeSO4F3,2.0528,7.49684700,7.46070890,10.52110133,77.76970490,90.00004901,89.99849115
3555,Ag2Te3Mo3O16,2.0822000000000003,7.80689407,7.80689407,7.54646473,65.72124428,65.72124428,95.41935565
3556,K2Ca4U(SiO4)4,2.0775,6.72230500,6.76571075,9.81058051,98.67428089,93.17407982,112.43482088
3557,Mn2Sb3I3O5,2.0829,6.50970489,10.32437723,10.57014078,98.67150408,107.46109470,91.49584977
3558,Cs5Ga3Se7,2.0831999999999997,11.40907095,11.40907095,9.84791847,75.47760393,75.47760393,71.13936930
3559,HoMoBrO4,2.0518,6.92380100,7.25998768,10.99570628,105.02469238,107.43433022,93.38303769
3560,C,2.0672,6.07398400,8.52385200,9.46272312,81.77340728,90.00000000,90.00000000
3561,K4P4O5,2.0647,14.07836400,6.89267600,6.98664553,61.23569731,90.00000000,90.00000000
3562,SrMn2V2O8,2.0499,9.97121092,9.97121092,9.97121092,101.29416607,101.29416607,127.46721795
3563,HgTe5H36C12N3(OF5)5,2.0657,11.31584579,11.31584579,16.96926069,89.66187665,89.66187665,83.47775156
3564,HgP2Xe5F22,2.0719,8.78334800,14.99821200,17.90401700,90.00000000,90.00000000,90.00000000
3565,K4CaU(Si2O7)2,2.0658,9.47697700,9.47697700,8.50482600,90.00000000,90.00000000,90.00000000
3566,Ga3Sb7(S4Cl7)2,2.0643000000000002,12.29762800,8.99959900,17.46858480,86.88261153,90.00000000,90.00000000
3567,UH17C10N3O10,2.0488,6.60156398,23.39948867,23.39948867,120.00000036,90.00000000,90.00000000
3568,SbN2Cl3F2,2.0671999999999997,7.95677300,16.09442000,17.89760441,58.02660688,90.00000000,90.00000000
3569,Ba4MnGa2(S3F2)2,2.0590999999999995,9.99511830,9.99511830,12.97184700,90.00000000,90.00000000,143.68779296
3570,MnBePO5,2.0682,14.06423600,4.76763900,5.46092500,76.18015603,90.00000000,90.00000000
3571,K2Li(H2N)3,2.0661,7.00413800,7.00413800,12.00583500,90.00000000,90.00000000,90.00000000
3572,CaAsO5,2.067,6.56131200,8.62942800,15.32572600,90.00000000,90.00000000,90.00000000
3573,P2H24PtC12(IN3)2,2.0544000000000002,12.30620100,7.62612000,12.60634791,58.31714849,90.00000000,90.00000000
3574,Rb3H12N5,2.0756,8.82058132,8.82058132,8.82058132,109.47122063,109.47122063,109.47122063
3575,K9Fe2O7,2.0603000000000002,11.13899300,11.13899300,11.13899300,90.00000000,90.00000000,90.00000000
3576,BaV2SeO8,2.0812,5.46162900,9.23576000,14.19203000,90.00000000,90.00000000,90.00000000
3577,U(H2O3)2,2.0792,6.71738300,8.48081600,8.87395600,90.00000000,90.00000000,90.00000000
3578,Ba3GeS5,2.0696000000000003,8.74250000,9.66842100,12.21012500,90.00000000,90.00000000,90.00000000
3579,LiFe(Se2O5)2,2.0707,6.92654300,10.49564200,12.19272200,89.99962643,89.99929187,90.00009876
3580,Mn3Fe2(GeO4)3,2.0602000000000005,10.60526396,10.60526396,10.60526396,109.47122063,109.47122063,109.47122063
3581,Pr4(SiS4)3,2.0730000000000004,11.48170486,11.48170486,11.48170466,114.72970502,114.72970502,114.72970087
3582,HgB4O7,2.0532999999999997,4.24180200,4.44825600,10.83168600,90.00000000,90.00000000,90.00000000
3583,Nd4(SiS4)3,2.0756,11.43594939,11.43594939,11.43594998,114.75076863,114.75076863,114.75076830
3584,CdTe(Pb3O5)2,2.0555000000000003,7.49683637,7.49683637,11.51582300,90.00000000,90.00000000,103.24401959
3585,MgB12(H3O)12,2.0732,11.72755830,11.72755830,11.72755830,60.00000000,60.00000000,60.00000000
3586,UH12C4S3O8,2.0829,8.07577600,12.35671000,13.17820708,84.66218433,90.00000000,90.00000000
3587,Hg3H6Pt(NCl4)2,2.0593,10.24539513,10.24539513,13.29172656,82.22899317,82.22899317,38.22941842
3588,ZnH16(IO8)2,2.0811,5.57111200,10.82734300,12.03365481,66.92940572,90.00000000,90.00000000
3589,NaAuS,2.0557,13.06986489,13.06986489,7.19171000,90.00000000,90.00000000,110.59937567
3590,Re2S2O13,2.0792,7.38108600,7.44147900,17.19680800,90.00000000,90.00000000,90.00000000
3591,Ba2LiIO6,2.0784,5.87460920,5.87460920,5.87460920,60.00000000,60.00000000,60.00000000
3592,ZrNF,2.0807,5.37245700,5.44038500,5.45400011,80.29583385,90.00000000,90.00000000
3593,Zn3P2(HO2)4,2.0530999999999997,5.27626900,10.45302600,18.02539100,90.00000000,90.00000000,90.00000000
3594,TlV(SO4)2,2.0665,5.16499793,5.16489720,8.42374901,90.00263987,90.00147329,120.00018649
3595,Sm2MgPtO6,2.08,5.76001200,5.45716700,9.52283605,55.33822598,90.00000000,90.00000000
3596,PrSI,2.0828,7.10959200,7.35493900,14.48868500,90.00000000,90.00000000,90.00000000
3597,Pr2MgPtO6,2.0527999999999995,5.77003600,5.54786500,9.66456040,55.15793998,90.00000000,90.00000000
3598,Nd2MgPtO6,2.0682,5.76395700,5.51087700,9.60708382,55.26446254,90.00000000,90.00000000
3599,NdSI,2.0536,7.08136400,7.31796700,14.41517400,90.00000000,90.00000000,90.00000000
3600,KTl(SO4)2,2.0558,9.18445596,9.18445596,9.18445522,31.38680457,31.38680457,31.38680829
3601,Li7PS6,2.0801999999999996,7.17337000,9.85700700,14.16857300,90.00000000,90.00000000,90.00000000
3602,La3BeGaS7,2.0807,10.25714823,10.25714823,5.87923200,90.00000000,90.00000000,120.00000146
3603,K2Hg3S4,2.0728,6.69102800,10.82101500,13.95155000,90.00000000,90.00000000,90.00000000
3604,Cs3PdF5,2.0811,8.03830400,8.03830400,6.80013400,90.00000000,90.00000000,90.00000000
3605,C7Cl5,2.0721999999999996,5.23038900,18.25547100,18.80780400,90.00000000,90.00000000,90.00000000
3606,Cs2Re3Se4I3,2.0776,10.37616831,11.99612512,29.89910774,90.00000000,90.00000000,106.32771558
3607,AlGaBr4,2.0723,7.64017600,10.18719800,10.33489000,90.00000000,90.00000000,90.00000000
3608,Y6Mg(GeS7)2,2.0555999999999996,9.96558408,9.96558408,5.69399300,90.00000000,90.00000000,120.00000053
3609,Y6Zn(GeS7)2,2.0692000000000004,9.93144641,9.93144641,5.71179800,90.00000000,90.00000000,120.00000270
3610,Y9Al(GeS7)3,2.0490000000000004,11.43009713,11.43009713,11.43009768,95.95449296,95.95449296,95.95449937
3611,TiOF2,2.0555000000000003,3.94721400,3.94721400,3.69838400,90.00000000,90.00000000,90.00000000
3612,TlMo2P3O13,2.0529,19.38993400,6.51645700,9.96926867,72.82603069,90.00000000,90.00000000
3613,Ti5Bi4(PbO9)2,2.0752000000000006,25.05427571,25.05427571,5.52540334,89.88220017,89.88220017,167.25693656
3614,SrTiFe3(BiO4)3,2.0649999999999995,9.87098326,9.87098326,9.87098321,33.16073306,33.16073306,33.16072792
3615,TaTiFeO6,2.0680999999999994,4.70940601,10.23788081,9.41876202,62.61917633,89.99493270,89.99938169
3616,Sr2CaTi3O9,2.0643000000000002,5.55465600,9.59504279,13.59887242,89.64723222,89.82530895,89.87789087
3617,Sm6Mg(GeS7)2,2.0717000000000003,10.09723250,10.09723250,5.80787200,90.00000000,90.00000000,120.00000329
3618,Sm6Cd(GeS7)2,2.0538000000000003,10.13282537,10.13282537,5.80642100,90.00000000,90.00000000,119.99999588
3619,Nd6Mg(GeS7)2,2.0709,10.21753486,10.21753486,5.83358900,90.00000000,90.00000000,120.00000556
3620,NaLaTi2O6,2.0743,5.49445500,5.51869100,7.78232500,90.00000000,90.00000000,90.00000000
3621,NaGd3Ti2(SbO7)2,2.0629,7.31691429,7.31691429,7.27712478,60.68895352,60.68895352,60.89459354
3622,Na4Ge2PbS6,2.0698,6.89806974,6.89806974,7.83642157,81.55415971,81.55415971,119.75738829
3623,MnNbH8(OF)5,2.0548,10.68908400,5.72794200,7.70480976,71.99084486,90.00000000,90.00000000
3624,Li3Fe2CoO6,2.0765999999999996,5.07446910,5.14555043,5.07538393,99.41253652,119.99405663,70.90439970
3625,Li2TiO3,2.0711999999999997,5.16987377,5.16987377,5.16987377,146.87622169,134.63453641,57.31131514
3626,La2Ti3ZnO10,2.0504999999999995,14.02516968,14.02516968,14.02516968,164.25679105,164.25679105,22.33544389
3627,La8Te3SeO8,2.0660999999999996,4.11219000,4.11219000,26.22118600,90.00000000,90.00000000,90.00000000
3628,La2Si2PbSe8,2.0525,9.55111825,9.55111825,10.82437750,65.30072898,65.30072898,59.94065762
3629,K4BaU3O12,2.0537,7.64348869,7.64348869,7.64348877,109.17576980,109.17576980,109.17577722
3630,K11Li4Ta15O45,2.0781,4.02773972,18.17210259,28.77972574,108.40368972,90.00000000,90.00000000
3631,GdTa3O9,2.0591,5.58708500,9.70640009,13.69731721,89.62256137,89.99790850,89.99237937
3632,Fe5Bi4O13F,2.0697,8.43702400,8.43702400,18.43685000,90.00000000,90.00000000,90.00000000
3633,Er2FeSbO7,2.073,7.19727844,7.19727844,7.19727844,120.38974293,119.21114737,90.34900030
3634,Fe2Te4BrClO10,2.0494000000000003,6.68430905,13.49518658,14.49227917,107.92522336,90.00000000,90.00000000
3635,Hg2C3I5N,2.0487,11.54508674,11.54508674,7.92823135,89.84085715,89.84085715,96.77825308
3636,Cr2H2Pb4ClO10F,2.0703,7.00394900,7.71716200,11.95305100,90.00000000,90.00000000,90.00000000
3637,CeTh2O6,2.0563000000000002,3.94422967,3.94422967,9.63804700,90.00000000,90.00000000,119.99999450
3638,Ce3ZrO8,2.0639000000000003,3.80467800,3.80467800,10.85243900,90.00000000,90.00000000,90.00000000
3639,Ca2MnO3,2.0563999999999996,3.36131411,14.07542500,6.72262963,90.00000000,90.00000000,90.00000000
3640,CCl3,2.0779,7.81785358,6.99329409,6.79619679,69.05762180,56.66130853,54.28106967
3641,Ca2La2MgTi3O12,2.075,5.52575300,5.56496273,7.82857184,89.94409457,89.95780709,89.90447546
3642,Bi3P3O14,2.0496000000000003,7.15873020,7.15873020,6.49065188,89.48964317,89.48964317,59.87198515
3643,Ba6Bi2(TeO6)3,2.0681000000000003,10.54176910,10.54176910,10.54176910,146.54214169,131.65386129,60.07139717
3644,Ba4Ta10FeO30,2.0795,10.03342096,10.03342096,10.03342096,133.49182416,117.80263198,81.10185874
3645,Ba3Cd(SnS4)2,2.0791000000000004,12.95531599,12.95531599,12.95531599,109.53865499,109.53865499,109.33643595
3646,Ba7Sr5(MoN4)4,2.0734999999999997,10.71549600,10.08739700,12.11085187,89.87273746,90.00000000,90.00000000
3647,Ba12In4S19,2.0588,9.73612608,9.73612549,26.07158344,90.00000000,79.23862366,119.99999802
3648,Ca2P4H11NO18,2.0735,5.64374600,6.30587931,12.73058188,76.37133345,84.05105879,66.53068603
3649,La2MgSe4,2.0512,7.86529400,9.16320520,13.75688398,99.88638718,96.11095538,90.01205542
3650,Nd2MgSe4,2.0488999999999997,6.96636500,8.56518100,14.62945800,90.00000000,90.00000000,90.00000000
3651,Mg3V4(PO4)6,2.0516,6.42348600,8.01991252,9.46364456,105.34087024,108.78688976,101.06704843
3652,Pr2MgSe4,2.0726,6.97783700,8.62661300,14.72078900,90.00000000,90.00000000,90.00000000
3653,Pm2MgS4,2.0650999999999993,7.33073012,7.33073012,7.33073012,110.88375015,110.88375015,106.68166140