,pretty_formula,bandgap,cell_length_a,cell_lentgh_b,cell_lentgh_c,cell_angle_alpha,cell_angle_beta,cell_angle_gamma
8819,Cs2U2Mo3O16,2.4489,10.34783800,10.34783800,16.98591400,90.00000000,90.00000000,90.00000000
8820,Cs2Ga3As5O18,2.4286,14.02768233,14.02768233,12.72945883,86.08360448,86.08360448,21.38116771
8821,CsVSO6,2.4242,14.82277800,9.09499500,9.51236075,81.54462902,90.00000000,90.00000000
8822,Ba2Li3TaN4,2.4381999999999997,6.36165554,6.36165554,11.13461078,64.45389327,64.45389327,53.41908092
8823,CdI2,2.4290000000000003,31.13740297,31.13740297,31.13740332,8.01258996,8.01258996,8.01258961
8824,CdI2,2.4223,4.33697926,4.33697926,116.34162600,90.00000000,90.00000000,119.99998870
8825,S,2.4349,13.61825400,14.01928100,19.11073649,71.22060293,90.00000000,90.00000000
8826,CoH9C6(S2O)3,2.4311000000000003,13.63063600,9.66284300,12.81040932,59.91471103,90.00000000,90.00000000
8827,AgCNO,2.416,5.88415314,5.88415314,5.90400500,90.00000000,90.00000000,134.62683457
8828,Zr(InBr3)2,2.4169,7.54407800,7.54407800,10.91841600,90.00000000,90.00000000,90.00000000
8829,Zn(HO)2,2.4389000000000003,3.23932188,3.23932188,4.51599900,90.00000000,90.00000000,119.99999747
8830,Co(HO)2,2.4450000000000003,3.18864196,3.18864196,4.80977853,87.46235029,87.46235029,61.01705468
8831,H2WO5,2.4402000000000004,3.94785200,7.56019200,12.53955691,69.81628684,90.00000000,90.00000000
8832,Fe2C9O7F4,2.4193,9.00926700,11.20359600,12.43384400,90.00000000,90.00000000,90.00000000
8833,RbUN3O11,2.4153,8.55063597,8.55063597,8.55063598,69.84077865,69.84077865,69.84077266
8834,PbI2,2.4379,22.68250529,22.68250529,22.68250535,11.78406209,11.78406209,11.78406126
8835,Li7P3S11,2.4173,6.18883800,12.62787574,12.67313285,107.48331704,103.55243778,101.86041383
8836,HgH2NCl,2.4227000000000003,4.49075600,5.10416000,6.81105300,90.00000000,90.00000000,90.00000000
8837,Cs2Mo2O11,2.4264,7.92729100,8.91744983,9.08827279,115.04960123,111.84874518,81.33299718
8838,Nb2Ni4O9,2.4494,5.12253300,8.81251500,14.49088200,90.00000000,90.00000000,90.00000000
8839,Fe2C8SO10,2.4421,13.29129600,8.83291900,12.88133968,66.35961814,90.00000000,90.00000000
8840,Na2S,2.4398,4.64646654,4.64646654,4.64646654,60.00000000,60.00000000,60.00000000
8841,Fe3C10SO10,2.4152,10.40556000,8.92555700,17.88694016,67.33795014,90.00000000,90.00000000
8842,NaLaTiO4,2.4259000000000004,3.78824400,3.78824400,13.21042100,90.00000000,90.00000000,90.00000000
8843,MgSiO3,2.4375999999999998,5.09514300,8.53416400,9.56205200,90.00000000,90.00000000,90.00000000
8844,Ir3(CO)8,2.4358999999999997,9.83526305,9.87164292,15.91069068,97.87649585,100.43889321,119.19315677
8845,Cs3Re3(SI)4,2.4394,11.44884933,11.44884933,11.44884933,60.00000000,60.00000000,60.00000000
8846,Lu2TiO5,2.4408,7.26648500,7.30712655,17.50859543,91.15365932,89.89614588,119.34168787
8847,NaTi2(PO4)3,2.4276,8.86750919,8.86750919,8.86750925,58.13793009,58.13793009,58.13793121
8848,Sm2Zr8O19,2.4179,3.57879600,3.70355600,26.19779400,90.00000000,90.00000000,90.00000000
8849,Rb2CeO3,2.4265000000000003,6.42547442,6.42547442,6.93883762,80.96757463,80.96757463,119.84957820
8850,NaCa9TaTi9O30,2.4406999999999996,38.47727400,5.42412300,5.52755243,89.97743433,90.00000000,90.00000000
8851,CaNd2Ti2ZnO9,2.4153,5.47500200,5.72259773,23.33079569,89.98106632,89.80182633,89.70329721
8852,Na5Ti7Al(PO4)12,2.4421,8.84435298,8.84868672,17.69705961,58.30121459,58.20834549,58.25225278
8853,Na3Ca2Ta3Ti2O15,2.4216,5.48879800,5.56912020,38.93469392,89.95954724,89.94452264,89.91452626
8854,K10Th3(P5S18)2,2.4436999999999998,17.25483619,17.25483619,28.28950794,54.02349944,54.02349944,30.81480833
8855,CsTiNb(O2F)2,2.434,7.38996731,7.38996731,7.46333702,61.05294226,61.05294226,90.50626186
8856,CaPr2Ti2ZnO9,2.4454,5.50055700,5.72497536,23.41610877,89.94756530,89.84813343,89.70022783
8857,Mg4Al3(HO)17,2.4290000000000003,3.03599500,7.17337068,18.56360278,95.51891660,94.51798339,101.95289907
8858,Rb2ZrFe(PO4)3,2.4234,10.25453100,10.25453100,10.25453100,90.00000000,90.00000000,90.00000000
8859,KNb4AsO13,2.4356999999999998,7.49878100,10.16427002,14.99614520,90.00527728,90.77705879,90.00359639
8860,LiFeP2O7,2.4151,13.25571300,5.08362400,9.75207678,60.63549352,90.00000000,90.00000000
8861,LiAg2P3(HO5)2,2.4369,7.72753600,7.73149903,8.51464528,72.83767328,73.61060107,72.78607842
8862,CsNaS,2.4309,4.84304600,4.84304600,7.97625700,90.00000000,90.00000000,90.00000000
8863,Ba5SrLa2Fe4O15,2.4153000000000002,11.95786144,11.95786144,14.31294884,89.73837355,89.73837355,59.93996009
8864,Mg3AlFe(SiO4)3,2.4240000000000004,5.02941400,4.85827800,14.09001085,89.98015185,90.00000000,90.00000000
8865,K4MoC5N6O,2.4403,8.60117300,14.40792300,21.42939300,90.00000000,90.00000000,90.00000000
8866,Na3Zr3Fe(PO4)6,2.417,9.26446466,9.25113646,18.55955492,57.40647619,57.43125717,57.30888348
8867,Fe4Sn(CO)16,2.4475,19.34370600,10.99276700,16.07763355,47.93678256,90.00000000,90.00000000
8868,HgH4C4(Br2N)2,2.417,12.29487800,8.86990900,17.41191299,59.33606171,90.00000000,90.00000000
8869,Ba2Na7Ti16Bi7O48,2.4487,5.65480628,5.65447357,45.04228970,59.00811644,59.00670238,58.70216123
8870,K4GeH4N2O3,2.4273000000000002,6.53551700,11.11296400,12.44277360,73.71919091,90.00000000,90.00000000
8871,UH10N2O7,2.4221,5.81744800,11.57151700,11.72515900,90.00000000,90.00000000,90.00000000
8872,UH12(NO7)2,2.4382,7.76348939,7.76348939,11.53909500,90.00000000,90.00000000,117.19766112
8873,H8PtN2(ClO)2,2.4348,7.62595500,6.47892000,6.77447899,89.84130154,90.00000000,90.00000000
8874,H14RuS2(N2O3)2,2.4352,7.09179200,6.31507500,11.76688332,65.59141609,90.00000000,90.00000000
8875,Ti3(BiO3)4,2.4321,5.45390100,5.54042800,16.89268104,80.84303579,90.00000000,90.00000000
8876,La2SeO2,2.4292,4.09875752,4.09875752,7.18708100,90.00000000,90.00000000,119.99999228
8877,KVPHO6,2.422,6.81190800,9.26802200,17.33849900,90.00000000,90.00000000,90.00000000
8878,MnH19C6I3N2,2.4264,10.97985200,12.03761900,13.37048769,84.07932672,90.00000000,90.00000000
8879,Li3Ti3Fe(PO4)6,2.4315,8.66970262,8.73841000,8.71480733,60.02468121,60.07109345,60.44016017
8880,CoH16C4(NO)7,2.4488,9.75639600,9.26487400,14.04321515,74.30192527,90.00000000,90.00000000
8881,FeP2HO7,2.4172000000000002,8.42360300,7.44655100,9.96722269,55.56966051,90.00000000,90.00000000
8882,Li2V(CO3)2,2.4273000000000002,6.19953002,9.23188246,8.37975340,98.65516149,77.01791823,105.18732257
8883,LiVO2F,2.4254000000000002,13.89916000,3.50709100,4.93465000,90.00002795,89.99867862,90.00000824
8884,Li3Fe(BO3)2,2.4438000000000004,5.03910200,6.42756947,8.04677203,73.88062574,89.32852913,89.32165937
8885,LiVF3,2.4259999999999997,5.36671100,5.45576600,7.83429600,90.00000000,90.00000000,90.00000000
8886,Li2Cr(SiO3)2,2.4376999999999995,5.86073373,5.86029467,9.12547521,89.67670126,90.38840726,62.00853609
8887,Li3Mn(OF)2,2.4278,5.70404727,9.32956965,5.80889564,89.99987728,90.00019695,72.19664534
8888,Li2Cr(CO3)2,2.4184,7.84752400,5.25310500,7.16021659,64.90979692,90.00000000,90.00000000
8889,LiVF4,2.4301,5.64658200,4.71582200,5.21942096,86.40776704,90.00000000,90.00000000
8890,LiCoPO4,2.4371,4.54832761,5.16860866,14.85956240,94.92115909,93.81129762,74.86495942
8891,Li3Co5OF11,2.4204,5.18107837,5.55201500,9.36411261,86.27992780,72.51940491,116.90830387
8892,LiVF4,2.4352,4.75913400,5.62015100,5.69981783,66.19911751,90.00000000,90.00000000
8893,SmIO,2.4443,11.21875062,11.21875062,11.21875101,20.66950832,20.66950832,20.66951415
8894,Li4Cr3FeO8,2.4281,5.10984103,5.17322673,5.94372702,73.29924580,89.99669774,80.59218807
8895,La2S2O,2.4295,7.37316200,7.23036800,8.70065853,81.45404267,90.00000000,90.00000000
8896,LiVF4,2.4245,6.18425516,6.18425516,5.12095670,71.62368639,71.62368639,58.81005880
8897,La2Th5O13,2.4279,23.09422078,23.09422078,23.09422039,9.88192825,9.88192825,9.88192900
8898,Li2FePCO7,2.4244,8.20558070,9.30103589,8.26509305,107.16406386,76.24199567,74.88585082
8899,Tm2TeO6,2.45,4.94587600,4.94587600,9.96382500,90.00000000,90.00000000,90.00000000
8900,Fe(AsO2)2,2.4200000000000004,8.62906500,8.62906500,5.76231000,90.00000000,90.00000000,90.00000000
8901,TiO2,2.4304999999999994,2.98860400,9.00201100,10.77790800,90.00000000,90.00000000,90.00000000
8902,LiCoBO3,2.4436999999999998,3.08925308,8.15249360,14.14074181,89.99996666,90.08398567,90.04659107
8903,P4H3(WO8)2,2.4154999999999998,5.01380100,7.49035264,8.31863518,90.79962764,90.56782649,104.34695202
8904,Hg2W2O7,2.4478,5.31424100,8.55690931,9.09400420,105.56429948,105.92332113,97.42922239
8905,Li2Sn5(PO4)4,2.448,5.17906500,9.65615793,9.72393890,115.57307227,101.96937889,99.87865689
8906,LiCrPO4,2.4433,5.19426200,8.08810200,8.87563782,82.25882120,90.00000000,90.00000000
8907,Li2CrSiO4,2.4482,5.11513700,10.58641900,13.09494800,90.00000000,90.00000000,90.00000000
8908,LiV3P3O11,2.4286000000000003,9.75894400,10.00644400,10.39435020,59.30745453,90.00000000,90.00000000
8909,Li2Co(Si2O5)2,2.4396,7.73112000,11.06458900,11.18262809,69.17684213,90.00000000,90.00000000
8910,LiCoPO4,2.4381999999999997,4.29277100,14.62690200,4.76642100,89.99963167,90.00008812,90.00033803
8911,LiP3(WO6)2,2.4395,8.99005500,8.67724300,14.95186866,55.44763928,90.00000000,90.00000000
8912,LiFeP2O7,2.4451,8.05071400,5.09928000,14.21988115,70.40455270,90.00000000,90.00000000
8913,Li3Fe2(PO4)3,2.4231999999999996,9.05010383,8.41317454,8.41728415,59.80761329,117.69662449,117.68348244
8914,Na3LiMnBPO7,2.4324000000000003,5.27072285,6.83866104,9.63223728,89.98835159,93.41949983,90.00177346
8915,Li3Fe(PO4)2,2.4341,7.54257872,7.54387491,11.25557561,74.90155500,74.90283031,101.02505062
8916,Li3Mn5OF11,2.4186,5.36355995,5.76603972,9.66128103,86.10278830,72.53567696,116.86396009
8917,Li2MnF6,2.4326,8.46784300,8.47621122,10.12806202,85.24554142,85.82743109,61.39281117
8918,Na5VO5,2.447,5.92629922,5.92629922,9.97080510,81.08416866,81.08416866,116.55106833
8919,Li2VO3F,2.4511,5.77485667,5.77485667,9.29788523,73.34355047,73.34355047,91.85896985
8920,BiOF,2.4213999999999998,7.26612647,6.87384265,6.04324490,68.11050349,61.37916864,50.51032787
8921,K2LiVPO6,2.4432,13.59082500,6.09997200,8.93269860,66.36639238,90.00000000,90.00000000
8922,Li2V2O5F2,2.4450000000000003,5.63653300,5.98968602,10.13191932,104.47070881,88.99836192,111.86884013
8923,Li3MnFeCo(PO4)3,2.4260000000000006,10.43749902,6.07784800,14.27562801,90.00000000,90.00573789,90.00000000
8924,LiVOF3,2.4165,5.17617917,7.13664019,8.16528147,90.02613648,89.97106477,89.99668107
8925,Li3VF6,2.4394,4.98770728,4.98770728,4.96191100,90.00000000,90.00000000,119.99999041
8926,Li3Fe2(PO4)3,2.4273,10.19567031,10.19567031,10.19567031,109.47122063,109.47122063,109.47122063
8927,Ti(PO3)4,2.4201,6.98694259,6.98694259,9.59577545,87.77517545,87.77517545,107.54299835
8928,Li12Cr3FeP4(CO7)4,2.4476,6.47040400,8.65031400,10.02797152,85.61151377,90.00000000,90.00000000
8929,Li12CrFe3P4(CO7)4,2.4319999999999995,6.50241300,8.55506900,9.98126830,85.26794216,90.00000000,90.00000000
8930,Li3VPCO7,2.4204,6.53496400,9.69253600,9.73718181,62.33619092,90.00000000,90.00000000
8931,Li3VPCO7,2.4336,6.61602800,8.51418128,9.99486171,95.26317409,90.26845506,90.38405947
8932,Na2FePCO7,2.4234,5.24545500,6.55081638,17.90402385,90.71157534,90.46350694,90.16565623
8933,Na2FePCO7,2.4381,6.53243000,8.95342780,10.48296165,90.44921234,90.19840204,90.71430973
8934,Li2Ti3CoO8,2.4438999999999997,8.44457600,8.44457600,8.44457600,90.00000000,90.00000000,90.00000000
8935,Cs2CeO3,2.4439,7.02260382,7.02260382,6.54551900,90.00000000,90.00000000,112.26244514
8936,Ba2La2O5,2.4346,6.60855000,6.67676500,17.44935600,90.00000000,90.00000000,90.00000000
8937,Li2FePCO7,2.4302,5.09051500,6.51072444,16.63003167,90.54223525,94.86125423,90.23214153
8938,Li4Cr3FeO8,2.4192,5.12221700,7.77045429,7.79070226,81.87376136,83.79320022,71.01726840
8939,Li5BiO4,2.4441999999999995,9.32720600,9.70163800,9.95823100,90.00000000,90.00000000,90.00000000
8940,Na2FePCO7,2.4167,10.34882632,8.36248799,8.39091812,77.38755262,71.22450026,107.54380748
8941,LiMgCr3(SO4)6,2.4153000000000002,8.31506400,8.32632149,8.87946798,62.17905802,62.34175184,60.40044143
8942,Li6Cr3Fe(PO4)6,2.4471,8.53711100,8.57713430,8.57675333,61.57418739,61.56032363,61.54343773
8943,Li3AlNiO4,2.4289000000000005,9.99287919,9.99287919,9.99287919,118.87515645,118.87515645,91.95958427
8944,Li2Cr2O7,2.438,8.37054500,6.74303300,9.62913498,78.69505386,90.00000000,90.00000000
8945,Ga2WO6,2.4444999999999997,4.56930400,5.00002700,16.88223300,90.00000000,90.00000000,90.00000000
8946,Li2Cr2O7,2.451,7.66700700,8.76617294,9.75256934,76.57657092,68.85156601,71.31317158
8947,BeCrO4,2.4289,8.32874800,4.91102900,8.56828823,63.33710266,90.00000000,90.00000000
8948,V2SiO7,2.4436,8.32394800,8.32394800,8.32394800,90.00000000,90.00000000,90.00000000
8949,Li3Co(NO2)6,2.4173,6.37175924,6.37175924,6.37175934,74.72237549,74.72237549,74.72237896
8950,RbLi2V2(BO3)3,2.4307,5.12370300,6.46423800,13.12012180,88.55560501,90.00000000,90.00000000
8951,Li3AlFeO4,2.4242,10.19113664,10.19113664,10.19113664,116.65272919,116.65272919,95.90252813
8952,Li7Cr7(P4O17)2,2.4363,20.23719400,7.97331200,9.93075351,67.90100518,90.00000000,90.00000000
8953,Li2Cr2O7,2.4501,7.32158700,6.10793100,13.94143120,72.84227856,90.00000000,90.00000000
8954,Li2Cr2O7,2.4336,7.36213400,7.22374633,6.53780726,109.15766357,90.10747883,116.14462927
8955,LuBiO3,2.4497999999999998,6.10858163,6.10858163,6.10858144,57.68195007,57.68195007,57.68194838
8956,LiTi2(PO4)3,2.4389,8.65444800,8.70524200,12.02978600,90.00000000,90.00000000,90.00000000
8957,Na2FePCO7,2.4466,5.29173120,13.05456629,8.96642442,90.08537080,88.26542507,89.96607925
8958,Ba4LiNb3O12,2.4458,5.88214600,10.21268500,19.35707900,90.00000000,90.00000000,90.00000000
8959,KLiZnS2,2.4458,7.23757689,7.23757689,7.23757689,148.07795843,148.07795843,45.77029661
8960,Li7Fe3Ni(PO4)6,2.4236999999999997,8.66528190,8.66528190,8.66528166,61.15372303,61.15372303,61.15372428
8961,Na4CrH8SO7,2.4254000000000002,13.86621100,5.83140800,11.26736799,76.21855260,90.00000000,90.00000000
8962,YNb2NO5,2.4163999999999994,5.28343100,5.92416252,14.99668645,89.82144986,89.77930848,89.80441205
8963,Nb2O5,2.4469,5.34330600,9.70188400,9.97851800,90.00000000,90.00000000,90.00000000
8964,Li2VF5,2.4474,9.73735800,5.83589100,7.83459287,73.70826993,90.00000000,90.00000000
8965,LiBi6B3O14,2.4456999999999995,16.15482200,8.74147000,12.65232335,47.56421873,90.00000000,90.00000000
8966,Li4VP6(H4O11)2,2.4366,7.00158300,7.55078302,8.50755926,84.74528847,76.60182786,85.81388336
8967,As4H24C8S7N2,2.4276,10.02894979,17.16033503,14.33428828,90.00000000,97.15566571,90.00000000
8968,LiVF3,2.4503999999999997,5.72425700,9.39906600,19.27674600,90.00000000,90.00000000,90.00000000
8969,NaLi3Ti2Fe2(PO4)6,2.4482,8.96034305,8.96034305,8.96034244,56.44548382,56.44548382,56.44548344
8970,YNb2NO5,2.4376999999999995,14.99130100,5.27082500,5.95722461,89.68926451,90.00000000,90.00000000
8971,LiFe3O3F4,2.4462,5.37551327,5.37551327,5.37551362,102.87628467,102.87628467,102.87627411
8972,Na2Ti4O9,2.4330999999999996,8.87064800,10.72619734,12.47295926,101.90459841,110.78138906,90.01451331
8973,Na2Ti4O9,2.4246000000000003,8.87144900,11.13426553,11.75543726,75.93888997,82.64717850,74.58792787
8974,NbBiO4,2.4174,4.19743302,4.19743302,6.05526211,73.85086327,73.85086327,88.96162728
8975,YbMoClO4,2.4154999999999998,6.75041449,6.75041449,6.87106949,77.89579092,77.89579092,59.20124302
8976,CuH3NCl,2.4494,7.23650481,7.23650481,7.23650481,109.47122063,109.47122063,109.47122063
8977,KYGeS4,2.4176,6.71187800,6.54213100,8.70463875,72.67936380,90.00000000,90.00000000
8978,Rb4Sb2O5,2.4295,6.73157100,8.26771400,19.47827900,90.00000000,90.00000000,90.00000000
8979,LiFe(SiO3)2,2.4319,7.06220100,7.41879829,7.42609664,80.67717963,62.35557311,77.27729097
8980,Sm2S2O,2.4438000000000004,7.10010300,7.02292300,8.47212415,81.13562520,90.00000000,90.00000000
8981,NaLuS2,2.4350000000000005,7.00544294,7.00544294,7.00544246,32.34658086,32.34658086,32.34658078
8982,RbLuS2,2.4324000000000003,8.00290955,8.00290955,8.00290909,28.92418774,28.92418774,28.92418604
8983,Ca2TiSiO6,2.4345,5.29466991,5.29466991,5.29466991,60.00000000,60.00000000,60.00000000
8984,NaSmTiO4,2.43,3.74322700,3.74322700,13.01488800,90.00000000,90.00000000,90.00000000
8985,H6PbCI3N,2.4371,6.43839300,6.43672400,6.49206998,89.58053777,90.00000000,90.00000000
8986,Nb4Ag2O11,2.4269,13.24308660,13.24308660,13.24308617,27.34979933,27.34979933,27.34979700
8987,BaMgVF7,2.4223,10.03027900,5.66080200,9.72827836,87.02939224,90.00000000,90.00000000
8988,MgMoF6,2.4373,5.61845607,5.61845607,5.61845595,57.42050802,57.42050802,57.42051815
8989,Ca2Sn3O8,2.4400000000000004,6.58456779,6.58456779,5.40742941,71.97223620,71.97223620,58.37661583
8990,Ta2O5,2.4175,3.88433400,3.92929500,13.04477100,90.00000000,90.00000000,90.00000000
8991,Mg2TaWO6,2.436,5.46273100,5.33128000,9.42119880,55.86344964,90.00000000,90.00000000
8992,Mg(SbO2)2,2.4185,6.51289900,7.12708706,16.95169635,89.14899707,89.25355550,63.03454942
8993,Ca2YBiO5,2.4258,8.93127454,8.93127454,6.09899490,70.66252556,70.66252556,39.64555805
8994,WF5,2.4308,5.80583174,5.80583174,8.55637200,90.00000000,90.00000000,143.87316926
8995,ZnCr2O7,2.4238,7.09177900,6.19673300,7.62052649,71.53807975,90.00000000,90.00000000
8996,Ca2Ti3O8,2.4456999999999995,6.09280619,6.09280619,10.61944600,90.00000000,90.00000000,120.00000210
8997,Fe2(MoO4)3,2.4169,6.93380700,8.66317706,10.37720695,108.49529252,103.48002009,103.76135762
8998,MgSi4SnO10,2.4398999999999997,7.64281300,7.64281300,15.05076200,90.00000000,90.00000000,90.00000000
8999,ZnSi4SnO10,2.4243000000000006,7.63857100,7.63857100,15.05240700,90.00000000,90.00000000,90.00000000
9000,C4O3,2.4632,10.49430027,10.49430027,10.49429968,90.10102370,90.10102370,90.10102404
9001,KLuS2,2.4628000000000005,7.68805511,7.68805511,7.68805489,29.93330139,29.93330139,29.93329599
9002,SrSiO3,2.4638,3.69890200,3.69890200,3.69890200,90.00000000,90.00000000,90.00000000
9003,Ca3ZnGe5O14,2.4913999999999996,8.12582061,8.12582061,5.14415820,89.64740482,89.64740482,59.48089437
9004,Cs3BO3,2.4689000000000005,10.61512200,11.15245100,11.19763500,90.00000000,90.00000000,90.00000000
9005,Y4Si2S3O7,2.4612999999999996,10.78870448,10.78870448,10.78870448,113.90067638,113.90067638,100.93499934
9006,SrGeN2,2.4540999999999995,5.43757600,10.85156100,16.17708600,90.00000000,90.00000000,90.00000000
9007,Mg30AlBO32,2.4604999999999997,8.50840600,8.50840600,8.52408500,90.00000000,90.00000000,90.00000000
9008,KMg30WO32,2.4877000000000002,8.60643400,8.60643400,8.68120000,90.00000000,90.00000000,90.00000000
9009,KNaMg30O31,2.4812,8.48454200,8.64850100,8.68911200,90.00000000,90.00000000,90.00000000
9010,TaTl3Se4,2.4689999999999994,6.98297068,6.98297068,6.98297068,109.47122063,109.47122063,109.47122063
9011,PrAlH6,2.4528999999999996,4.27796619,4.27796619,4.27796547,98.43572773,98.43572773,98.43574311
9012,NaSr4(BN2)3,2.4848,6.57442319,6.57442319,6.57442319,109.47122063,109.47122063,109.47122063
9013,Tl2HgSe,2.4546,12.51283617,12.51283617,12.51283617,121.39239099,115.37273208,92.90032196
9014,Li3PS4,2.4824,6.22180500,7.92446900,13.42311500,90.00000000,90.00000000,90.00000000
9015,MnInF3,2.4640000000000004,4.30803345,4.30892638,4.30970046,89.89852373,89.72196743,89.95820787
9016,FeSO4F,2.4684,7.24037600,7.39300770,7.43338110,119.47433183,90.00006245,89.99995419
9017,Cs2Mo(SO)2,2.4539,7.22304208,7.22304208,10.39570570,65.29531200,65.29531200,66.18618630
9018,SmCrO3,2.4814000000000003,5.41137200,5.62929200,7.74926000,90.00000000,90.00000000,90.00000000
9019,Rb2LuCuCl6,2.4709000000000003,7.29841678,7.29841678,7.29841678,60.00000000,60.00000000,60.00000000
9020,K3SbI6,2.486,9.00712901,9.00712901,9.00712901,60.00000000,60.00000000,60.00000000
9021,K3TlCl6,2.4663,7.88272882,7.88272882,7.88272882,60.00000000,60.00000000,60.00000000
9022,Na2AlAgCl6,2.4849,7.10301631,7.10301631,7.10301631,60.00000000,60.00000000,60.00000000
9023,K2NaIrF6,2.4562,6.04932963,6.04932963,6.04932963,60.00000000,60.00000000,60.00000000
9024,K2AlAgCl6,2.4812999999999996,7.17364638,7.17364638,7.17364638,60.00000000,60.00000000,60.00000000
9025,Cs2RbTlCl6,2.4909999999999997,8.12729867,8.12729867,8.12729867,60.00000000,60.00000000,60.00000000