,pretty_formula,bandgap,cell_length_a,cell_lentgh_b,cell_lentgh_c,cell_angle_alpha,cell_angle_beta,cell_angle_gamma
811,CsCdCl3,1.8515000000000001,5.32984200,5.32984200,5.32984200,90.00000000,90.00000000,90.00000000
812,K9InSe7,1.8682000000000003,8.29699800,11.42009300,25.32008844,77.50345852,90.00000000,90.00000000
813,K2SnHgSe4,1.8615000000000002,6.83149703,6.83149703,6.83149703,105.84137455,105.84137455,117.00382430
814,Mo6PbI14,1.8468999999999998,14.85007800,14.85007800,14.85007800,90.00000000,90.00000000,90.00000000
815,Na4Si2Te5,1.8643000000000005,12.96756100,14.24839200,15.06802332,87.90774039,90.00000000,90.00000000
816,GaSe3N2Cl5,1.8368,11.17585600,9.80894100,15.24899239,50.92417793,90.00000000,90.00000000
817,Cs2LiCr(CN)6,1.8709,7.66881600,7.66881600,10.87448500,90.00000000,90.00000000,90.00000000
818,SbCl5,1.8519999999999999,12.93487200,10.13838100,13.44428295,70.82894328,90.00000000,90.00000000
819,SiC,1.842699999999999,32.90377935,32.90377930,32.90377946,5.39747670,5.39747771,5.39747767
820,CsAgBr2,1.8386,5.36992800,5.36992800,10.43071600,90.00000000,90.00000000,90.00000000
821,RbNa5(WN3)2,1.8426,10.38204400,9.42820100,19.34862815,89.87760330,90.00000000,90.00000000
822,ReP(Cl2O)3,1.8660999999999999,12.92678200,6.57914600,14.20479799,80.17167145,90.00000000,90.00000000
823,Cs4SiTe4,1.8365999999999998,15.37211600,15.37211600,15.37211600,90.00000000,90.00000000,90.00000000
824,K3Nb2Cu3S8,1.8652000000000002,12.24860552,12.24860552,14.52351439,60.54422831,60.54422831,26.30235236
825,La3CuGeS7,1.8377999999999997,10.36134836,10.36134836,5.92323900,90.00000000,90.00000000,120.00000229
826,TlSnPS4,1.8417,6.79843900,8.95834400,12.22810700,90.00000000,90.00000000,90.00000000
827,Fe2(TeO3)3,1.8538000000000006,5.35301200,7.93573600,18.02205000,90.00000000,90.00000000,90.00000000
828,ReCl3O2,1.8688,8.46708200,8.52115900,8.53562300,90.00000000,90.00000000,90.00000000
829,BiSeCl,1.8415,4.19157900,9.33547300,9.36168300,90.00000000,90.00000000,90.00000000
830,BaNiF6,1.8535,4.90541443,4.90541443,4.90541464,98.87134828,98.87134828,98.87133603
831,Re2Pt(CO)12,1.8561999999999999,6.53972400,7.27168172,10.17256834,71.53938141,85.40636274,88.06005239
832,MoPN(Cl3O)2,1.8684999999999998,11.36503500,8.40906300,12.73980759,70.38364084,90.00000000,90.00000000
833,PbCN2,1.8563000000000005,3.90475200,5.60095400,12.10643900,90.00000000,90.00000000,90.00000000
834,H5IO6,1.8681999999999999,18.46406200,4.92196300,5.51926887,69.70163971,90.00000000,90.00000000
835,FeHO2,1.8384,7.74186503,7.74186503,7.74186503,92.28023803,92.28023803,156.98839397
836,Fe4H14O13,1.8595,6.71244064,6.75158357,6.75312286,108.18254684,110.26324081,110.80895636
837,Ni(HO)2,1.8699999999999999,3.16199723,3.16199723,7.63428201,86.74464263,86.74464263,59.77797647
838,Fe4H14O13,1.8555,6.66726200,6.68027732,6.70451737,108.27372586,109.86439868,109.58396331
839,Ba2LiReO6,1.8665,5.82315162,5.82315162,5.82315162,60.00000000,60.00000000,60.00000000
840,Si2H2O3,1.8384000000000005,8.47771500,10.43123858,12.39390091,82.18130796,70.24206384,68.76962758
841,BC2N,1.8462999999999994,2.53744500,2.56513900,3.64474900,90.00000000,90.00000000,90.00000000
842,CaUO4,1.8651999999999997,3.72549305,3.72549305,6.20295158,68.59335446,68.59335446,69.59421539
843,Li3V2(PO4)3,1.8647,8.74008400,8.75307800,14.97326145,54.85579899,90.00000000,90.00000000
844,BaNb2O6,1.8366,3.97929800,6.23495100,10.72756600,90.00000000,90.00000000,90.00000000
845,TbH2Br,1.8613000000000004,10.68140772,10.68140772,10.68140735,20.41196499,20.41196499,20.41196536
846,K3Cr(CN)6,1.8504,8.54396300,10.61866000,13.71518200,90.00000000,90.00000000,90.00000000
847,AgAsS6N4(OF3)2,1.8584,9.30317400,10.44350400,15.13609200,90.00000000,90.00000000,90.00000000
848,Os2C6SeO6,1.8468,9.64502100,14.18969077,16.60150171,98.30651873,106.01516239,89.64998526
849,K4US3O14,1.8491,9.39714700,13.41075200,23.65084000,90.00000000,90.00000000,90.00000000
850,LiCr3O8,1.8567,5.53487851,6.45575003,8.39796733,89.99218506,90.00068166,89.99155493
851,Ce8Nd2O19,1.8445,3.88096374,38.89138730,37.10695022,5.20030039,58.49377615,60.09166833
852,Dy2Ti2O7,1.8428,7.19002300,7.30162088,17.64987798,89.96057607,90.15424539,118.43801165
853,NaZr2SN2Cl,1.8507000000000002,7.36522600,6.40568000,10.23341514,78.22303820,90.00000000,90.00000000
854,SrTi2O5,1.8641999999999999,9.11899663,9.11899663,11.55570500,90.00000000,90.00000000,128.08500466
855,InSnBr3,1.8478999999999999,12.05966200,12.22797743,18.03637887,90.38692803,89.98107970,94.97603382
856,Zn4B2O7,1.8634000000000002,8.28832056,8.28832056,9.99078595,66.42605218,66.42605218,60.15638159
857,Sr14La6Mg3Ti17O60,1.8642999999999996,5.58239806,5.58239806,45.86957294,86.27621311,86.27621311,59.96006390
858,LaTiAlPbO6,1.8590000000000009,3.90594400,5.49647000,22.05656900,90.00000000,90.00000000,90.00000000
859,Li4Mo3O8,1.8366000000000002,6.07457997,6.07457997,6.07457993,61.55457988,61.55457988,61.55458158
860,MgH2(SO4)2,1.8397999999999999,10.64124700,5.09789400,9.68367873,62.57693131,90.00000000,90.00000000
861,Sr2HN,1.8444,6.71813875,6.71813875,6.71813921,33.08666828,33.08666828,33.08667201
862,Na3Sr14Nd3Ti20O60,1.8440000000000003,5.53353707,5.53353707,39.48486100,90.00000000,90.00000000,90.02449801
863,NaSr2NdTi4O12,1.8572000000000002,5.50411000,5.50411000,23.65956400,90.00000000,90.00000000,90.00000000
864,ScF3,1.8419,3.96217442,3.96217442,3.44025400,90.00000000,90.00000000,125.32674301
865,TlH6(NO4)3,1.8545,7.88195585,7.88195585,7.88195497,100.66060390,100.66060390,100.66059959
866,Mo(PO3)4,1.8636999999999997,8.48637667,8.48637667,9.60457699,61.81791283,61.81791283,51.77740236
867,ZnH8C2I2(N2O)2,1.8599999999999999,6.99424500,12.68884100,14.09297355,66.02134970,90.00000000,90.00000000
868,TlCrO4,1.8706000000000003,5.85224700,8.77324000,14.90789000,90.00000000,90.00000000,90.00000000
869,H6Os5Pt(CO)16,1.8719000000000001,15.68952500,11.94416300,16.48673133,70.24792165,90.00000000,90.00000000
870,Fe2O3,1.8628000000000005,8.23585389,8.23241683,8.22394943,71.06874052,109.56383065,70.17116481
871,K2H6PtC4N4O3,1.8723,6.98029500,11.88421300,13.48519800,90.00000000,90.00000000,90.00000000
872,SnH3S4N4Cl5O,1.8395,24.37560500,6.84285000,9.35834066,78.08535855,90.00000000,90.00000000
873,SrLaMnSbO6,1.8423999999999996,8.14722751,8.19226888,8.19045558,88.71323130,90.03084715,89.96942574
874,Mn6VSi5HO19,1.8655999999999997,6.80805289,29.33707795,7.67206179,90.00000000,95.73974463,90.00000000
875,FeP3H18C6(SO)6,1.8523,9.21827962,9.21827962,13.33573846,84.09943526,84.09943526,75.68317455
876,Li3AuO3,1.8604000000000003,9.25743500,9.25743500,3.64107300,90.00000000,90.00000000,90.00000000
877,LiAgF2,1.8451,3.04786325,3.04786325,6.54304553,77.00547841,77.00547841,60.02202830
878,TiCo(PO4)2,1.8662999999999998,5.97197719,9.86712830,11.07346328,115.73701679,89.97723725,90.02404119
879,Li7VO5F,1.8707,5.52278500,5.55595420,5.77237706,61.53265575,62.92293286,61.22032571
880,NaV3O8,1.8435000000000001,3.62177700,7.33148400,12.28009960,73.38805491,90.00000000,90.00000000
881,Fe4OF7,1.8497,4.81686400,5.83132351,10.81932402,82.42741517,89.70061743,89.70267846
882,TiSnO4,1.8366999999999996,5.68486842,5.68486842,7.44589438,71.94077660,71.94077660,72.14343521
883,LiCuF2,1.8469000000000002,6.11192846,6.11192846,6.11192922,27.96720611,27.96720611,27.96720418
884,Zn(CoO2)2,1.8674999999999997,5.96780446,5.96780446,5.96780446,60.00000000,60.00000000,60.00000000
885,Nb4VO12,1.8516999999999997,7.65242834,9.20406841,7.69661956,113.30749865,95.03286645,66.35707744
886,MnOF,1.8572000000000002,5.10936796,4.74571400,5.84978169,90.00078862,93.12557489,89.99865661
887,ZnSeO4,1.8655999999999997,4.99602546,4.99602546,6.59716700,90.00000000,90.00000000,112.14916701
888,Li3VCr2O6,1.8717000000000001,2.97214670,13.02087400,5.95444235,76.00702563,89.96822037,90.01143606
889,Li2FeO2F,1.8387,2.96740400,2.96740429,14.49110000,89.99989096,89.99989463,59.99994227
890,Fe6OF11,1.8705,5.83781750,5.83781750,7.50707481,73.92788423,73.92788423,71.67692815
891,Li5BiS4,1.8366999999999996,7.90907751,7.90907751,7.90907751,151.09898227,125.59815819,62.77069508
892,Li3TiFe3O8,1.8386,5.97857094,6.01593914,8.47672413,89.40882598,90.00021350,90.00006842
893,CrO3,1.8534000000000002,4.62517500,6.99576200,9.73885280,71.54640030,90.00000000,90.00000000
894,Rb3InO3,1.8418,7.18765747,7.18765747,7.09733260,84.20502301,84.20502301,114.86470679
895,Li4NbCr(WO6)2,1.8458999999999999,5.17951862,7.54599776,10.95467136,85.69951567,89.88000703,90.02341695
896,LiVF5,1.8663,5.31607300,8.29656000,9.31848900,90.00000000,90.00000000,90.00000000
897,Ba2LaI7,1.8582999999999998,10.34785320,10.34785320,11.73407310,60.75588656,60.75588656,53.36395573
898,LiV3O8,1.8464,3.62309500,6.96986100,12.47283023,75.07216029,90.00000000,90.00000000
899,Fe6OF11,1.8601999999999999,4.83779200,5.84457567,8.11251353,87.61952124,89.51346286,89.59270135
900,LiFe3(OF3)2,1.8377,5.17885200,7.15166119,7.54998025,78.92283122,89.18760757,89.73037082
901,Li2NbCr3O8,1.858,6.02959250,6.05194869,10.40976803,106.70751515,90.00068047,60.12215708
902,LiVOF3,1.8379,5.14435700,6.03302800,9.90322300,90.00000000,90.00000000,90.00000000
903,LiFe2O2F3,1.8697000000000001,5.11498500,5.93668303,7.10631888,108.95949708,89.61353801,115.25670778
904,CrPO5,1.8518000000000001,7.84193378,7.84336312,7.84165739,64.52171953,98.03333376,64.53909058
905,Li6MnS4,1.8507999999999998,8.04711200,8.04711200,5.80386000,90.00000000,90.00000000,90.00000000
906,Li6CrNiP2(CO7)2,1.8462999999999998,6.44399200,4.99610700,8.51508717,85.39630634,90.00000000,90.00000000
907,Li3V(PO4)2,1.8612999999999997,7.14174683,10.09891472,10.09804425,115.89373816,83.66931686,96.33158069
908,CoH2SeO4,1.8572,4.85843606,13.90919483,5.73249295,100.71631967,89.98780149,89.99502099
909,Li2VOF3,1.8440999999999999,5.70977735,5.70991102,5.22537958,89.73235117,90.26688408,118.08897692
910,Li3V3(PO4)4,1.8543000000000003,11.28740200,6.18860500,8.72359730,79.15601490,90.00000000,90.00000000
911,Li3V3(PO4)4,1.8697,8.56369700,9.11185274,9.16457419,104.19335437,115.04002002,102.13025615
912,Li6Cr3Sb(PO4)6,1.8610000000000002,8.47321600,8.52242715,8.52489411,63.33039754,63.48068337,63.21577082
913,LiMnPO4F,1.8414,7.31735829,7.31735829,9.98017075,62.60508860,62.60508860,50.26793458
914,Li3Fe5(PO4)6,1.8495,7.95909300,8.40222406,8.85579680,105.23321629,109.74219939,108.56112608
915,Li2AgF3,1.868,5.36207629,5.36207629,5.39358000,90.00000000,90.00000000,118.19161582
916,Li3Cr2P2(O4F)2,1.8569000000000004,5.29273619,10.54439534,7.55967498,73.17905220,74.14615818,97.47402359
917,Li2VFe(P2O7)2,1.8502,8.23739200,7.17516900,9.77890733,68.55108438,90.00000000,90.00000000
918,FeOF,1.8549999999999998,3.09897900,6.71518200,10.61099044,71.66299990,90.00000000,90.00000000
919,LiMn2OF3,1.8555000000000001,6.25883401,8.20292106,8.19800803,99.88233845,67.55618954,112.43353198
920,Li3MnO2F,1.8564999999999998,5.32614400,5.51736161,5.90258598,63.10839435,86.24372164,84.20517866
921,W(OF)2,1.8618999999999999,3.88079692,3.88079692,9.49349200,90.00000000,90.00000000,90.11235173
922,Na2VO3,1.8365,5.40643848,5.40643157,5.69011126,81.39473125,98.60536480,58.75010621
923,VF4,1.8646,5.61235000,9.05994100,10.88927300,90.00000000,90.00000000,90.00000000
924,LiCuCO3,1.8629000000000002,6.64984276,5.10451099,5.03701553,61.40568136,112.68360891,86.97082873
925,Li5VO4F,1.8622000000000003,8.91983600,5.24274200,5.37772812,65.73046434,90.00000000,90.00000000
926,Li2Ti3CoO8,1.8663000000000003,5.97760435,10.34266507,10.30033276,99.34458283,90.01782052,106.80712582
927,Na2FeO3,1.8659,5.82979657,5.82979657,5.29248100,82.25628193,82.25628193,122.11634790
928,V2OF5,1.8688,5.22989997,5.43843990,5.26447350,118.78967193,119.24441836,90.87144092
929,Fe4OF7,1.8523999999999998,4.80941000,5.80451400,10.84695220,82.31347868,90.00000000,90.00000000
930,LiV2OF7,1.8496000000000001,5.66425628,10.97369748,5.72458363,72.21075644,90.03058646,90.00174301
931,LiVOF3,1.8467,4.95012201,7.39946684,7.68096862,102.78170394,89.99376545,89.99802120
932,Li2V2SiGeO10,1.8559,6.41248160,6.41248160,4.66678600,90.00000000,90.00000000,90.50610091
933,LiV2OF5,1.8419999999999999,5.24795085,5.24795085,13.75690800,90.00000000,90.00000000,120.00001072
934,Li4V2SiO8,1.8587999999999998,10.93360300,8.27377000,8.27910117,76.90208973,90.00000000,90.00000000
935,Li2V2SiGeO10,1.8519999999999999,4.69454700,9.03155200,9.10961400,90.00000000,90.00000000,90.00000000
936,Ce4ThO10,1.8494000000000002,16.02676073,16.02676073,6.73582269,85.99809561,85.99809561,13.94495947
937,NiH36C12S6(I2O3)2,1.871,9.71778458,9.71778458,9.71778503,76.77568380,76.77568380,76.77568184
938,VPH5O7,1.8484,7.03967000,8.24719000,10.07689983,78.47711874,90.00000000,90.00000000
939,LiVSiO4,1.8513000000000002,4.78795100,5.80965600,10.42502200,90.00000000,90.00000000,90.00000000
940,Li2MnF5,1.838,6.56444600,7.66188300,8.12597500,90.00000000,90.00000000,90.00000000
941,Li2MnF5,1.8453,11.44669600,5.72811700,6.13986224,84.12900687,90.00000000,90.00000000
942,Li4Ti9O20,1.8429000000000002,5.97384200,5.97630308,24.67335461,89.99961366,96.93028120,119.91516534
943,LiV2F9,1.8542,5.09533143,5.09533143,14.43927460,89.92491462,89.92491462,60.41750412
944,LiBiB2O5,1.8463000000000003,7.52995837,7.52995837,10.22722395,71.73208780,71.73208780,92.28294973
945,Li4CrFe3O8,1.8475000000000006,5.18767200,7.87917476,7.87858344,81.78704449,83.75887225,70.98693577
946,Rb17Fe5O16,1.8487,19.16534888,19.16534888,7.12597990,84.74882187,84.74882187,158.60798613
947,Li3VBO5,1.8590000000000004,4.74924500,4.90922200,16.25552600,90.00000000,90.00000000,90.00000000
948,Li4V3CrO8,1.8653999999999997,5.18761200,5.99604525,10.75571427,98.09333637,103.72211165,106.97467174
949,Li2VSiCO7,1.8632,8.21843977,8.21862799,9.29316104,106.74947584,106.75596414,102.28185270
950,Na3VSiCO7,1.8571,6.66319400,10.59316499,8.96916424,87.51667343,89.99981362,90.00032690
951,Cs2CeO3,1.8531,7.49295024,7.49295024,14.66094300,90.00000000,90.00000000,125.09970792
952,Li5NiO4,1.8688000000000002,9.07108700,9.15284600,9.18443900,90.00000000,90.00000000,90.00000000
953,LiV(SO4)2,1.8706999999999998,9.05460473,9.00222408,9.03522372,55.67974771,55.40850060,55.40067558
954,Na2Sb4O11,1.8439999999999999,10.58891150,10.58891150,7.26848624,85.04279527,85.04279527,42.32207167
955,TiMn3O8,1.842,8.27550900,8.27550900,8.27550900,90.00000000,90.00000000,90.00000000
956,FeSb3(PO4)6,1.8466,8.90051589,8.90051589,8.90051623,58.02513685,58.02513685,58.02513317
957,LiFe2(BO3)2,1.8463999999999998,9.07275600,5.26593600,10.21963558,88.67427247,90.00000000,90.00000000
958,VOF3,1.8436,5.29216800,5.49951647,9.33048766,88.81727375,89.92567902,88.90872852
959,VOF3,1.8455,5.47449700,5.49658980,10.43528246,89.20385312,89.39920396,60.45502180
960,LiFe2(BO3)2,1.8519,5.28834000,9.05949865,10.22247582,89.07905641,88.70984311,89.58674197
961,Rb2MgO2,1.8689,6.48934800,9.78014100,16.20919867,61.68608032,90.00000000,90.00000000
962,Na8Gd2O7,1.8545000000000003,11.69995600,9.22865100,10.92419290,71.63949436,90.00000000,90.00000000
963,Li5Cu(PO4)2,1.8465999999999996,5.33800700,6.21500959,9.95567526,89.87822099,89.81502542,89.91042878
964,Ho2Sb2O7,1.8380999999999998,7.52884026,7.52884026,18.52612000,90.00000000,90.00000000,120.00000228
965,Ho3Fe5O12,1.8603999999999998,10.81685994,10.81685994,10.81685994,109.47122063,109.47122063,109.47122063
966,Zn2As2O7,1.8609999999999998,11.15925054,11.15925054,9.75856257,81.08094035,81.08094035,45.23907981
967,MgIn2O4,1.8377,6.40616258,6.40616258,6.40616258,60.00000000,60.00000000,60.00000000
968,Ba(GaSe2)2,1.8615,6.58439321,6.58439321,11.60787100,90.00000000,90.00000000,122.19262950
969,Rb2O2,1.8383,5.16756296,5.16756296,5.16756296,131.22177168,108.08950395,91.74907523
970,Li4Co(OF)2,1.8527999999999998,6.49257940,7.79064032,7.42102100,89.99991182,89.99987861,94.65579330
971,Li3Fe2(SiO4)2,1.8551000000000002,5.03299500,5.31562267,6.72296060,91.27383407,90.81765857,90.22412317
972,SrGa12O19,1.8584,5.87580714,5.87580714,23.13297500,90.00000000,90.00000000,119.99999029
973,Nd3SiAgS7,1.8394999999999997,10.31754022,10.31754022,5.78558400,90.00000000,90.00000000,120.00000142
974,KGeBiS4,1.8409999999999997,6.80733200,6.65127100,17.38548375,71.95615941,90.00000000,90.00000000
975,Li3AsH36(SeN3)4,1.8609,9.01484814,9.01484814,9.01484814,109.47122063,109.47122063,109.47122063
976,TaFeO4,1.8691,10.37328083,10.37328083,10.37328083,142.32776535,142.32776535,54.33538511
977,Ba3MoN4,1.8530000000000002,10.51962000,10.96535500,12.38986800,90.00000000,90.00000000,90.00000000
978,NaLiTe,1.8651999999999997,4.90109994,4.90109994,4.90109994,60.00000000,60.00000000,60.00000000
979,YMoN3,1.8386000000000005,7.36266456,7.36266456,6.29992126,73.36103109,73.36103109,81.47953717
980,K2O,1.8533999999999997,7.08899856,7.08899856,4.36407900,90.00000000,90.00000000,120.00000521
981,NaYSe2,1.8697000000000001,7.44564070,7.44564070,7.44564145,32.30640204,32.30640204,32.30640608
982,MgP2W2O9,1.8542000000000005,6.70668300,7.17398400,15.03611500,90.00000000,90.00000000,90.00000000
983,V2ZnO5,1.8628000000000002,3.42557300,4.91592400,11.77908500,90.00000000,90.00000000,90.00000000
984,Y2Cr3O12,1.8436,5.08544600,6.83183980,14.19336220,85.06196718,80.04991258,68.25076794
985,MoO3,1.8443999999999998,5.40001800,5.44034024,7.79665768,89.52433034,89.10702316,87.86537190
986,Y(FeO2)2,1.8670999999999998,6.32862535,6.32862535,6.32862535,121.08004257,117.58162184,91.18915653
987,Zn(SbO2)4,1.8601,3.25596600,8.40540924,9.43324164,65.57687999,83.28938480,84.53171099
988,Mg4Ni5(TeO6)3,1.8563,8.66035643,8.66035643,10.31678369,85.19836344,85.19836344,61.74684871
989,BiF5,1.8702999999999999,10.28191100,5.64076000,8.31981803,68.44998198,90.00000000,90.00000000
990,TaZn2BiO6,1.8718000000000004,8.09106100,5.53203200,5.61488066,87.23103342,90.00000000,90.00000000
991,Ca3Ge3(SbO6)2,1.8480000000000008,11.27487653,11.27487653,11.27487653,109.47122063,109.47122063,109.47122063
992,SnO2,1.8405,6.39715262,6.39715262,6.39715262,60.00000000,60.00000000,60.00000000
993,Ca3Ge3(MoO6)2,1.8503000000000003,11.03095355,11.03095355,11.03095355,109.47122063,109.47122063,109.47122063
994,Mg2MoWO6,1.8445999999999998,5.34349867,5.42754700,7.78724619,90.00000000,89.87170974,90.00000000
995,Ca(MoO2)2,1.8467000000000002,3.24102000,9.59430500,11.40425000,90.00000000,90.00000000,90.00000000
996,TaAl(WO4)2,1.8656999999999995,5.62500100,5.19758100,10.67463464,61.00123086,90.00000000,90.00000000
997,MgSn(GeO3)2,1.8385000000000002,10.21183300,5.47424500,10.50980966,76.31888033,90.00000000,90.00000000
998,Mg(SbO2)2,1.8709000000000002,6.04922000,6.06045661,20.47634569,89.70964204,94.19740856,110.95969724
999,LaTaZnCrO6,1.8511999999999995,5.72504800,5.42284500,10.00285536,58.01628818,90.00000000,90.00000000
1000,Li(CN)2,1.8856000000000002,6.28324907,6.28324907,3.47650798,84.17656423,84.17656423,105.89639625
1001,SnS2,1.8791000000000002,6.54368129,6.54368129,6.54368129,125.49724173,125.49724173,80.71604106
1002,HfTaNO3,1.8989000000000003,3.52345500,3.58958900,5.29425100,90.00000000,90.00000000,90.00000000
1003,Ba3Ca2(SiN3)2,1.8748,6.13164704,6.13164704,13.44096987,80.18250428,80.18250428,68.29839738
1004,CeZr3O8,1.9004999999999996,7.42353577,7.42353577,5.31916673,89.35914099,89.35914099,90.36399662
1005,KNa2BN2,1.8907,5.99463048,5.99463048,5.99463048,138.30447073,138.30447073,60.43700617
1006,Ca4PdO6,1.9064999999999999,6.60583788,6.60583788,6.60583806,90.72020357,90.72020357,90.72021414
1007,SrMg14MnO16,1.8972999999999995,8.68401300,8.68401300,4.41389900,90.00000000,90.00000000,90.00000000
1008,Mg14MnNiO16,1.8962000000000003,4.27320500,8.54061700,8.54188900,90.00000000,90.00000000,90.00000000
1009,Mg30VSiO32,1.8870000000000005,8.55467500,8.55467500,8.55309000,90.00000000,90.00000000,90.00000000
1010,CaMg30SnO32,1.8797999999999995,8.63765200,8.63765200,8.63301900,90.00000000,90.00000000,90.00000000
1011,Mg30MnCO32,1.9065000000000003,8.52420300,8.52420300,8.51914900,90.00000000,90.00000000,90.00000000
1012,Mg30MnVO32,1.8792,8.54185200,8.54185200,8.54827800,90.00000000,90.00000000,90.00000000
1013,Mg30BWO32,1.8795000000000002,8.55573400,8.55573400,8.58472200,90.00000000,90.00000000,90.00000000