,pretty_formula,bandgap,cell_length_a,cell_lentgh_b,cell_lentgh_c,cell_angle_alpha,cell_angle_beta,cell_angle_gamma
4276,K4LiIO6,2.0860000000000003,10.13538900,11.45765500,13.48230000,90.00000000,90.00000000,90.00000000
4277,K4Ni(NO2)6,2.0860000000000003,7.63635170,25.71925751,8.86383466,84.89632233,64.48942177,81.46389545
4278,Ca5(ReO6)2,2.1162,19.23257763,19.23257763,19.23257743,29.08231123,29.08231123,29.08230896
4279,Ti4Bi2O11,2.1127000000000002,7.68712219,7.68712219,15.17679498,87.06326060,87.06326060,28.75351474
4280,RbV(PO4)2,2.1007,9.16337000,4.76137700,16.79611905,86.97258322,90.00000000,90.00000000
4281,TiSO5,2.1002,5.31646000,11.10796900,26.41427500,90.00000000,90.00000000,90.00000000
4282,Na6U2Mo4O21,2.1148999999999996,7.79274900,8.30857155,8.86754818,72.07962757,78.62571812,65.39777585
4283,FeTe2ClO5,2.1053,6.69946100,13.35427100,14.41736465,71.71063044,90.00000000,90.00000000
4284,AlS2NCl4,2.1062000000000003,7.58803000,10.93618200,11.47805700,90.00000000,90.00000000,90.00000000
4285,RbSiBiS4,2.0843999999999996,6.89040500,6.58470600,18.19786149,72.01593433,90.00000000,90.00000000
4286,Bi24Cl10O31,2.1162,8.07054900,10.25274300,29.99864768,88.93402471,90.00000000,90.00000000
4287,Cr3(PO4)2,2.1014,8.63171100,10.54104000,14.46616300,90.00000000,90.00000000,90.00000000
4288,K2RuN3Cl3O5,2.084,7.19459800,7.68874830,10.46708354,90.40703383,102.11787025,90.53827352
4289,Ge(PbS2)2,2.1082,9.40718000,8.18382400,10.93046331,65.82551751,90.00000000,90.00000000
4290,Na3VS3O,2.1122,5.98567300,9.74948600,12.01236100,90.00000000,90.00000000,90.00000000
4291,Ba8Ce3(SbO6)4,2.1072,10.53582047,10.53582047,10.53582047,131.97451165,131.97451165,70.26928594
4292,LiFe(MoO4)2,2.0953,6.86802300,7.26151242,7.48814355,91.01506439,110.17503358,105.01122642
4293,LiUPO6,2.1036,5.12258300,10.07427770,10.97159215,64.33192558,77.06522383,77.28831481
4294,BaUO4,2.1163,5.88355500,8.21400300,8.29527700,90.00000000,90.00000000,90.00000000
4295,Ag3CS(NO2)3,2.1056999999999997,6.59913100,7.99327929,8.13196815,105.37823438,93.44406134,90.53869704
4296,Co3C10ClO9,2.1077,8.14261200,8.99456840,12.54992556,86.77054647,82.60124831,67.99222003
4297,Cs4U3Mo3O20,2.0888999999999998,7.77317300,8.05532869,9.89088615,79.13392703,82.30435549,87.61673783
4298,SiC,2.091100000000001,3.09404116,3.09404116,45.55453500,90.00000000,90.00000000,119.99998199
4299,Pr3SiSe2N3,2.0857,11.59070481,11.59070481,11.59070425,111.30250853,111.30250853,111.30250772
4300,ZrCuH8C2NCl6,2.0844,9.80709000,10.66930200,12.64673105,70.25158296,90.00000000,90.00000000
4301,HgH10C3I3N,2.0883,15.95683600,8.91635700,9.29409462,89.55396343,90.00000000,90.00000000
4302,SbPS4,2.0906000000000002,6.38748100,13.83159388,23.78762487,89.85191933,89.96094875,88.39982913
4303,CsTbZnSe3,2.0993999999999997,8.36413455,8.36413455,11.04530600,90.00000000,90.00000000,150.98188683
4304,CsYZnSe3,2.1128,8.37413678,8.37413678,11.03437800,90.00000000,90.00000000,151.08714853
4305,Cs2TiV3(PO6)3,2.0845000000000002,13.90710902,13.90710902,9.68810400,90.00000000,90.00000000,120.00000486
4306,RbInS2,2.0972999999999997,7.99558741,7.99558741,15.84500015,82.76429182,82.76429182,90.01893059
4307,CsU2H3(C2O7)2,2.0857,13.70993200,5.57192600,9.67392809,82.48715611,90.00000000,90.00000000
4308,K4UC3O11,2.1084,7.02041559,7.02041559,12.45348210,86.62786860,86.62786860,83.54087492
4309,VHO3,2.104,8.57039400,5.11584800,8.29087982,80.62159446,90.00000000,90.00000000
4310,VHO3,2.0902000000000003,8.69704900,5.04568900,7.87183646,76.02769800,90.00000000,90.00000000
4311,VHO3,2.0998,5.18999200,8.18530349,8.62758755,89.65306874,87.94920092,82.22967386
4312,H5IO6,2.0928,5.09544900,5.31559124,18.98374792,89.05244183,88.97468610,69.67785336
4313,FeHO2,2.1098999999999997,7.25271590,7.25271590,7.25271590,92.45818876,92.45818876,156.09510612
4314,Si2H2O3,2.086,8.72387500,10.26472869,12.72292474,88.10881197,110.04260728,115.02776849
4315,AlBiTeCl4,2.1035,10.65820414,10.65820414,10.65820414,107.62938574,107.62938574,113.22123650
4316,Mn2In(CO)9,2.0948,17.40717759,17.40717759,17.40717759,133.12940061,133.12940061,68.45100502
4317,C13Cl3,2.1014,13.06092985,13.06092985,18.77056600,90.00000000,90.00000000,119.99999922
4318,SbP3C(NCl5)3,2.0998,9.38476900,10.83851332,13.40101847,86.40132319,88.84366939,75.91967855
4319,Ca3BCNCl2,2.1079000000000003,3.85115100,11.23645700,13.90299400,90.00000000,90.00000000,90.00000000
4320,WC4(BrO2)2,2.0884,8.66737057,8.66737057,9.49873080,59.39220934,59.39220934,63.27456970
4321,K3Nb7O19,2.112,6.58883300,14.45592911,19.46504283,80.15497887,88.00198867,84.93790368
4322,CsV3O8,2.0999,8.77301200,5.15318200,8.51047661,82.22522461,90.00000000,90.00000000
4323,Bi2Ru3(CO)9,2.1010999999999997,9.22833700,9.46700706,23.45033051,86.24968085,88.37143807,64.27316837
4324,Ru(CO)4,2.0919999999999996,8.58853855,8.58853855,8.58853855,139.64790546,130.51560668,65.68612291
4325,K2PtN4(ClO4)2,2.0909,9.76146100,7.60145100,9.65701441,59.89110783,90.00000000,90.00000000
4326,RuC4(IO2)2,2.1112,6.64031665,6.64031665,12.85154138,89.42980825,89.42980825,114.11913199
4327,Tb2YbS4,2.1164,7.23858603,7.23858603,7.23858603,109.42118269,109.42118269,109.57134293
4328,Sr2V3O9,2.1002,7.10910000,7.46608322,9.02945391,103.40797504,101.80939530,116.58041959
4329,Li5AuO4,2.0944000000000003,3.60790200,5.38247123,5.55844452,79.95946293,73.23740463,71.31776879
4330,Ce3Nd2O9,2.1083,14.21633461,14.21633461,14.21633461,164.23017157,164.23017157,22.37345519
4331,Li6Br3N,2.0965,6.33003220,6.33003220,6.38934449,60.26421069,60.26421069,89.74949126
4332,Ca16Zr9Ta7N7O41,2.0894,5.61687700,5.78648364,32.18943796,89.96719090,89.87008803,89.91321194
4333,LaAl2Si5N9O,2.0951999999999993,9.41431700,9.16313800,9.83465775,89.87407879,90.00000000,90.00000000
4334,LaSb(SBr)2,2.0982999999999996,9.34854200,8.85681900,17.60124145,75.91111470,90.00000000,90.00000000
4335,PWC5Br3O5,2.085,13.76977500,6.96598000,13.51270300,87.44405975,90.00000000,90.00000000
4336,SrFeMoO5,2.0871,4.85784600,4.98565564,6.08018983,111.48612735,109.56889161,93.42875658
4337,NaCa2V3(CoO6)2,2.1016000000000004,10.87736625,10.87736625,10.87736625,109.35183260,109.35183260,109.71026148
4338,Ba8Ce7YHO24,2.0871,6.32794800,6.33463904,17.57433711,90.04792077,90.12609143,90.70976654
4339,Ti5ZnBi2(Pb2O9)2,2.1174,6.00543893,6.00543893,14.28297244,81.32518929,81.32518929,54.12261067
4340,Mg7VFeMo15O56,2.0843,8.51046900,9.24221527,16.23581805,90.06383794,96.82993149,90.17532425
4341,LiMo(PO3)5,2.11,13.82708000,9.46586300,10.63651220,68.13330380,90.00000000,90.00000000
4342,CaH12(IO7)2,2.1018,10.45320098,10.45320098,11.69710388,60.23022671,60.23022671,32.06689441
4343,Ba3Li2Mo4P6(ClO14)2,2.1138,9.33358700,15.93138700,18.40249900,90.00000000,90.00000000,90.00000000
4344,Mo2C3S2(Cl5O)2,2.0977,19.80653700,11.92605900,16.74801430,85.16169497,90.00000000,90.00000000
4345,Li2V(PO3)5,2.1170999999999998,9.63395500,5.30764200,13.31917534,71.06522577,90.00000000,90.00000000
4346,NaMn2V3(PbO6)2,2.0934000000000004,11.32151967,11.32151967,11.32151967,109.14120876,109.14120876,110.13327986
4347,U2H14S2O19,2.1173,6.91562900,11.44715100,21.09466600,90.00000000,90.00000000,90.00000000
4348,CsSr2Ta3O10,2.1109,3.97181100,3.97181100,15.72054600,90.00000000,90.00000000,90.00000000
4349,Na4CaTa4TiO15,2.0898,5.50445500,5.57754486,39.07108418,90.13109467,90.04959387,90.20256544
4350,H6S(NO2)2,2.0938,6.62195300,8.24342900,10.20409200,90.00000000,90.00000000,90.00000000
4351,Cs2HgO2,2.0923,7.99585611,7.99585611,7.99585611,147.00974268,147.00974268,47.34935679
4352,Sc2SO2,2.1135,3.54934480,3.54934480,12.61455500,90.00000000,90.00000000,120.00001500
4353,NaAuF4,2.0934999999999997,6.72548447,6.72548447,6.72548447,129.06365908,129.06365908,74.90816517
4354,MnH2(SeO4)2,2.1067,10.71948400,7.01165400,10.02582932,69.58867004,90.00000000,90.00000000
4355,Zn2H10N12O5,2.0978,7.17941000,9.85242900,15.84947771,52.44310602,90.00000000,90.00000000
4356,Li2VP2O7,2.1093,5.36537373,12.28491785,8.88312786,73.47354116,97.72565820,88.79110355
4357,Li4FeSb(WO6)2,2.116,5.17146353,7.52267089,10.90944924,85.89804114,90.08114248,90.01573060
4358,Bi3O4F,2.1122999999999994,6.62028897,6.62028897,11.57310100,90.00000000,90.00000000,144.22574881
4359,LiVF4,2.1042,4.71740532,4.71740532,3.11853400,90.00000000,90.00000000,92.54987152
4360,Na6MgO4,2.0991,7.66364589,7.66364589,5.92568200,90.00000000,90.00000000,119.99999909
4361,Li4Ti3Ni2Sn3O16,2.1130000000000004,6.11114545,6.11114545,9.74967717,89.57893158,89.57893158,59.75375799
4362,LiFe(CO3)2,2.1145,5.77609134,7.44491817,9.39901174,90.00078138,89.98203687,105.19864794
4363,Tm2SeO2,2.1129000000000002,3.78368000,3.78368000,6.75352100,90.00000000,90.00000000,120.00000000
4364,LiVO3,2.0946,6.59542462,6.59542462,6.06816302,76.31625421,76.31625421,25.31002991
4365,Lu(BiO2)3,2.1029,6.96675965,6.96675965,6.96675950,93.17896997,93.17896997,93.17895705
4366,LiVF4,2.0983,5.12204987,5.12204987,6.37776300,90.00000000,90.00000000,110.23348591
4367,Li3Nb3TeO12,2.0852999999999997,5.19909100,5.52609290,7.62523037,85.62649819,89.77686448,89.72661995
4368,LiVF4,2.1168,6.71416972,6.71416972,6.58787636,73.17789906,73.17789906,34.63694446
4369,LiCoPHO5,2.1142,5.07878300,5.28605859,7.04117646,106.93471188,108.78815856,98.36598737
4370,Li2VP2HO8,2.0854999999999997,7.98716148,8.16255903,9.72758763,89.99059571,112.22133627,90.00705248
4371,Sm2Se2O,2.0963000000000003,7.25456700,7.26727500,8.78017730,80.08234586,90.00000000,90.00000000
4372,SrLaI5,2.1165,4.61446400,8.69908600,15.22021280,87.22352893,90.00000000,90.00000000
4373,Li3SbS3,2.1066000000000003,7.69386646,7.69386646,7.69386754,55.26599640,55.26599640,55.26599477
4374,SbPHO5,2.0954000000000006,5.22904700,5.64916235,7.70865302,109.09856826,105.92804376,94.84799401
4375,Y2SeO2,2.1142000000000003,6.67372109,6.67372109,6.67372109,146.44924209,146.44924209,48.17996724
4376,LiVF4,2.1167,6.52248344,6.52248344,5.49734838,87.81095205,87.81095205,47.46085411
4377,Li2V2SiGeO10,2.1122,6.38286200,4.65362000,6.48222037,87.56347351,90.00000000,90.00000000
4378,LiV2F7,2.1014999999999997,9.15595298,9.15595298,5.63681158,87.17527598,87.17527598,31.45962542
4379,BaYI5,2.1035,11.43718561,11.43718561,7.81057903,88.99050979,88.99050979,147.21448206
4380,Na3FeBPO7,2.0979,6.69572400,5.24472100,8.94305675,89.05796275,90.00000000,90.00000000
4381,ZrSeO,2.1087999999999996,5.88738200,5.88738200,5.88738200,90.00000000,90.00000000,90.00000000
4382,Li2V2O5F2,2.0911999999999997,7.06339526,7.06339526,6.87989077,63.30321160,63.30321160,61.92844234
4383,Li3Cr2(PO4)3,2.096,8.82375700,9.07739459,15.01481822,81.58538424,72.97519860,60.95819369
4384,Li2V(SiO3)3,2.1058999999999997,7.87679400,9.44464800,10.79625000,90.00000000,90.00000000,90.00000000
4385,Bi12PbO19,2.0942,9.05767483,9.05767483,9.05767471,109.81767677,109.81767677,109.81766740
4386,Li2VP3O10,2.1159,7.99569000,9.95958600,12.14638320,83.47295022,90.00000000,90.00000000
4387,K3Nb7O19,2.0838,6.56703700,10.11337292,14.39054053,97.35805430,95.69439871,106.51733624
4388,Nb9PO25,2.0860000000000003,15.86840000,15.86840000,3.89810300,90.00000000,90.00000000,90.00000000
4389,LiFeP2O7,2.0967,8.12090300,7.26896500,9.61627965,73.93617745,90.00000000,90.00000000
4390,Li2NiSnO4,2.1116,6.08744202,6.10907933,10.48713771,105.76638392,106.06705299,61.44999996
4391,LiV3P2(HO3)4,2.1058,10.51452300,7.46668900,13.04708575,63.79922532,90.00000000,90.00000000
4392,LiMn5P3O13,2.0967,6.48881100,8.80958301,9.76582580,93.93250811,92.68305281,90.12807947
4393,Li4Cr3FeO8,2.1129000000000002,5.89702449,5.89702449,5.89702457,59.79657911,59.79657911,59.79658362
4394,Li2Cr4P4O15,2.096,8.93959768,8.93959768,18.30889750,82.83979830,82.83979830,103.77606095
4395,Nb9AsO25,2.1079000000000003,15.96847200,15.96847200,3.89214700,90.00000000,90.00000000,90.00000000
4396,LiVOF3,2.0854,7.84581100,5.26514200,9.16754435,72.92980672,90.00000000,90.00000000
4397,Li2VCr(P2O7)2,2.1127000000000002,9.54961844,9.54903449,7.01796106,99.44045763,99.45246923,118.72051285
4398,V2PH10NO11,2.0892,7.11699000,10.68255100,12.52141500,90.00000000,90.00000000,90.00000000
4399,V6O5F19,2.0941,5.30498800,5.54875874,14.78008062,100.19635016,89.88489728,90.85910354
4400,Li2VCr(P2O7)2,2.1104000000000003,8.22140500,7.15127700,9.74233807,68.53644736,90.00000000,90.00000000
4401,Li2Co(CO3)2,2.1152,9.72345900,7.57704300,9.12939730,55.98020304,90.00000000,90.00000000
4402,V6O5F19,2.1039,5.37474400,5.59869726,15.02954273,100.25422755,89.71077399,93.00887285
4403,Li2Co(CO3)2,2.0932000000000004,9.68583100,7.57659700,7.93469514,69.75187282,90.00000000,90.00000000
4404,Li2VCrP2(O4F)2,2.1021,6.96240900,7.34337982,7.98553713,90.67940018,91.61927748,117.58633000
4405,Li5Fe2(BO4)2,2.0848,5.20760400,6.68222800,10.70702890,82.48792428,90.00000000,90.00000000
4406,LiV(OF)2,2.0841,5.50543800,5.29834300,5.36666640,61.93865717,90.00000000,90.00000000
4407,Li5MnCr3O8,2.1054,6.01291240,6.01291240,9.94109600,90.00000000,90.00000000,120.00000436
4408,Bi2CO5,2.0890000000000004,7.61673509,7.61654432,3.93659499,75.02630860,75.02094401,29.95274739
4409,Hf2N2O,2.1151,6.78214100,5.83132700,5.91886290,89.73375481,90.00000000,90.00000000
4410,Li2VCr(P2O7)2,2.1056999999999997,8.22779100,7.02720600,9.73405613,71.21143650,90.00000000,90.00000000
4411,Li2VCr(P2O7)2,2.0877,7.02079400,8.22183215,14.01517605,90.01238718,99.53886440,90.11357654
4412,Na8TiO6,2.0926,6.63070000,9.59246300,13.93894300,90.00000000,90.00000000,90.00000000
4413,Li2VOF4,2.0948,5.04808300,7.22002559,10.34605698,108.97466729,89.78271864,91.13500279
4414,SiC,2.1121,3.09488386,3.09488386,15.18453100,90.00000000,90.00000000,119.99999693
4415,LiMnF4,2.1029,4.56374300,5.35001400,11.56462000,90.00000000,90.00000000,90.00000000
4416,Li3MnFeCo(PO4)3,2.0843000000000003,6.09222900,10.46145000,14.27934102,89.94740020,90.00000000,90.00000000
4417,LiVOF3,2.1128,6.08277600,6.08251500,8.38820800,89.99978451,89.99997692,89.99828564
4418,LiCo2OF3,2.0858,6.02703455,6.02703455,6.13753493,60.59380276,90.00000000,120.00000000
4419,Li6Mn(OF)3,2.1,6.74995795,9.86160565,9.90694769,66.22579430,81.60463409,98.76681312
4420,Li3VSi2O7,2.1006,13.08343300,8.62937400,8.64258461,60.14038110,90.00000000,90.00000000
4421,Li3BiS3,2.112,11.04590600,11.20556363,12.31262845,113.70192185,108.76588985,88.01285986
4422,CoH4SeO5,2.0994,11.71126200,5.71633100,8.74091623,61.57704152,90.00000000,90.00000000
4423,Li12MnCo3P4(CO7)4,2.0893999999999995,6.49318900,8.46067100,10.02954912,85.11513224,90.00000000,90.00000000
4424,Li2Cr(Si2O5)3,2.0898000000000003,6.70326700,7.33551018,7.33864595,97.51306581,114.08523270,110.97286389
4425,LiLa5Ti8O24,2.117,5.50806300,9.57214691,9.60376015,109.86174243,90.40928717,90.07365378
4426,Gd3AsO7,2.0945,6.44122284,6.44122284,7.45790000,90.00000000,90.00000000,109.38288163
4427,Li2VF6,2.1063,5.39654252,5.39654252,9.94546386,88.12654144,88.12654144,61.27650003
4428,LiV2F7,2.099,5.43364500,6.92611225,8.52536392,109.36660658,103.13599489,86.09850367
4429,Li2Fe5Si5O16,2.1172,5.09569000,6.95696615,10.41608831,89.36015857,89.87733429,89.98823112
4430,P3W2O13,2.1014999999999997,6.45196000,7.54633045,11.31834724,76.40624666,86.24410167,79.75387166
4431,Li2V(Si2O5)3,2.0879,7.24411496,7.24411496,14.93444464,78.28704194,78.28704194,59.52635880
4432,Li2FePCO7,2.1060999999999996,5.08550200,8.49207002,12.79722427,96.39994969,93.65228487,94.72934369
4433,Li2FePCO7,2.0987999999999998,6.48879700,8.32042100,10.16795008,85.26873105,90.00000000,90.00000000
4434,LiCoBO3,2.1159999999999997,3.16536700,14.26019647,14.26733576,60.07404771,89.07989630,88.92895122
4435,LiVB2O5,2.1149999999999998,10.84900700,5.48049500,12.09229846,79.14431928,90.00000000,90.00000000
4436,Li3NbS4,2.0938,7.55800900,8.78194800,10.30763700,90.00000000,90.00000000,90.00000000
4437,K5YO4,2.1115,11.98465900,12.27728100,12.42717500,90.00000000,90.00000000,90.00000000
4438,Dy2SeO2,2.1118,6.65907459,6.65907459,6.65907459,146.50539920,146.50539920,48.09668188
4439,AgH9O5,2.0934,6.48047600,6.78878900,13.05945900,90.00000000,90.00000000,90.00000000
4440,Dy(BiO2)3,2.0953000000000004,7.00729643,7.00729643,7.00729630,92.75440379,92.75440379,92.75441124
4441,ZnSeO4,2.1122,4.87042600,4.92332100,6.17322200,90.00000000,90.00000000,90.00000000
4442,La2MgI8,2.117,9.46298139,9.46298139,13.54212782,69.02008467,69.02008467,61.56952152
4443,Li2CoH8(CO5)2,2.1075000000000004,5.50775307,5.50775307,13.89554530,82.39891352,82.39891352,78.20564042
4444,Li9Mn2AlO8,2.1141,6.52018400,7.64875600,16.22827800,90.00000000,90.00000000,90.00000000
4445,Li3Al(FeO3)2,2.1165,10.34856200,5.94677400,10.09067381,54.50336240,90.00000000,90.00000000
4446,Li2NiSn(PO4)2,2.1142000000000003,6.37191200,4.83134600,10.85358108,89.11933205,90.00000000,90.00000000
4447,Na3CoBSO7,2.0962999999999994,6.84885606,10.32729591,10.52845319,119.07454475,90.01413753,89.99474649
4448,Li2TiNi2O5,2.1129,7.78530265,7.78530265,5.11219150,83.72914771,83.72914771,141.88955840
4449,LiMnB2O5,2.1113999999999997,9.47510200,6.49295100,6.74102431,73.75706641,90.00000000,90.00000000
4450,Na3VPCO7,2.1076999999999995,5.38806805,13.54409608,8.92130330,90.00269088,88.51804243,90.01245817
4451,Li4UO5,2.1041,5.29196253,5.29196253,5.29196253,100.23596671,100.23596671,130.13531347
4452,Nb3Co(PO4)6,2.1091,8.91444380,8.91444380,8.91444444,58.46254635,58.46254635,58.46254301
4453,CaLaI5,2.1083,7.78363345,7.78363345,18.30986000,90.00000000,90.00000000,146.58405985
4454,CaLaI5,2.099,4.47663400,15.54323300,19.00277400,90.00000000,90.00000000,90.00000000
4455,Lu2Sb2O7,2.0964,7.50032526,7.50032526,18.28162700,90.00000000,90.00000000,119.99999349
4456,Na3V(BO3)2,2.0938000000000003,9.55649700,5.54207200,11.73652430,65.32979264,90.00000000,90.00000000
4457,LiV(Si2O5)3,2.0893,11.17175297,11.17175297,9.99957900,90.00000000,90.00000000,100.04447921
4458,AgPO3,2.1105,4.05025800,5.87268600,11.96470882,68.46602396,90.00000000,90.00000000
4459,Hf2N2O,2.091,8.72987200,8.73006274,8.73349996,109.40599101,109.53043611,109.43669756
4460,TiO2,2.084,4.61023700,5.56601000,14.96758300,90.00000000,90.00000000,90.00000000
4461,BeCrO4,2.1018999999999997,7.16479169,7.16479169,5.72091315,77.74123686,77.74123686,81.41784374
4462,NaV3P2O13,2.1006,8.46853600,10.22021100,12.08653800,90.00000000,90.00000000,90.00000000
4463,Li9Mn3(WO4)7,2.0894,8.59095056,8.59095056,8.59095050,89.95853206,89.95853206,89.95853763
4464,Ti3NiSn2(PO4)6,2.0855,9.02905786,9.02905786,9.02905799,57.00993510,57.00993510,57.00993516
4465,Na2SnO2,2.1033000000000004,5.85194700,6.87972300,17.01531900,90.00000000,90.00000000,90.00000000
4466,ZnSeO4,2.0896,4.98914700,6.90757600,9.17792800,90.00000000,90.00000000,90.00000000
4467,Hf2N2O,2.0925000000000002,8.70968300,8.72005227,8.72509882,109.36708522,109.35907726,109.39046070
4468,LiVPH2O5,2.0857,5.21707300,10.61094600,16.47620500,90.00000000,90.00000000,90.00000000
4469,V6O5F19,2.0987,5.39741200,5.57349584,14.80442517,100.83464578,89.69397960,91.63309294
4470,V6O5F19,2.0865,5.31654900,5.53022971,14.90890499,79.64722766,89.83123188,89.08530777
4471,K2PdF6,2.0949,5.91239005,5.91239005,4.85594800,90.00000000,90.00000000,120.00000061
4472,K2Se,2.0927,5.48521539,5.48521539,5.48521539,60.00000000,60.00000000,60.00000000
4473,Na2Li2V3P2O13,2.0850999999999997,12.34869800,8.81368200,10.30745982,88.10605487,90.00000000,90.00000000
4474,LiVP3HO10,2.1044,5.03852500,11.97653200,15.49976500,90.00000000,90.00000000,90.00000000
4475,Ca7Sn3S13,2.1028999999999995,8.71139100,11.59727000,22.16290200,90.00000000,90.00000000,90.00000000
4476,TbI3,2.0967000000000002,11.37454531,11.37454531,4.01455200,90.00000000,90.00000000,119.99999601
4477,Li6V(OF)3,2.1132999999999997,5.21866000,6.64960862,7.87553509,89.86991482,91.47715211,106.58086932
4478,Li2VF6,2.117,5.55682570,5.55682570,8.61522700,90.00000000,90.00000000,121.49910362
4479,LiCr(SiO3)2,2.1082,5.21322700,8.79816131,18.33961303,90.08654741,90.02743008,90.01528424
4480,SmI3,2.1171,11.29408430,11.29408430,4.08679500,90.00000000,90.00000000,120.00000174
4481,MnOF,2.0871,3.80692721,8.29714454,5.56779455,75.80287215,109.85756754,103.36630439
4482,RbAuS,2.0942,5.29380672,5.29380672,7.09793500,90.00000000,90.00000000,100.88159862