,pretty_formula,bandgap,cell_length_a,cell_lentgh_b,cell_lentgh_c,cell_angle_alpha,cell_angle_beta,cell_angle_gamma
610,CaZnF2,1.8597000000000001,7.48376729,7.48376729,7.48376729,121.52498328,121.52498328,87.37834187
611,Ba5Mn3O12F,1.8711000000000002,10.57936762,10.57936762,7.93673800,90.00000000,90.00000000,119.99999760
612,BaTeH3(S2O3)2,1.8497000000000003,5.36445200,11.03683900,21.54224607,77.96757209,90.00000000,90.00000000
613,ZnGaPS,1.8609000000000004,6.72112653,6.72112653,6.72112718,33.53401525,33.53401525,33.53401627
614,Zn5SeS4,1.8575,14.02683245,14.02683245,14.02683245,164.05017147,164.05017147,22.63051990
615,Y2FeSbO7,1.8546,7.30951673,7.30951673,7.30951673,120.17101765,119.55045113,90.24222147
616,VCl2O,1.8515000000000001,3.50306006,14.75448449,7.06839250,81.28355868,104.36570380,83.17630852
617,Tb2TeS2,1.8603999999999998,7.61610996,7.61610996,7.61610996,147.73440820,138.65484691,53.39275744
618,SrPbS2,1.8588,7.41675512,7.41675512,7.41675563,33.51598812,33.51598812,33.51598771
619,SrLiLaTi3O9,1.8457999999999997,5.52988758,5.52988758,6.78823100,90.00000000,90.00000000,119.99999494
620,SrMg3O4,1.8466000000000005,2.79196600,2.79196600,11.25827300,90.00000000,90.00000000,90.00000000
621,SrLiTi4CrO11,1.863,5.83419800,9.99170100,13.96128000,90.00000000,90.00000000,90.00000000
622,Sr3LiBiO6,1.8560999999999999,6.99199880,6.99199880,6.99068410,87.68504103,87.68504103,92.51346355
623,Sr2NbFeO6,1.8391000000000002,5.69011655,5.69011655,9.85557097,73.22134512,73.22134512,60.00000000
624,Sr2CaTi3O9,1.8556999999999997,12.39689951,12.38982443,5.55699853,77.11570031,76.97351799,25.91078170
625,Sm9In(SiS7)3,1.8553000000000002,11.63311172,11.63311172,11.63311137,98.03117223,98.03117223,98.03117725
626,RbMgCoF6,1.8434999999999997,7.34147505,7.34147505,7.34147505,120.52917821,119.83951752,89.68203906
627,Pr6Cd(SiS7)2,1.8690000000000002,10.35339964,10.35339964,5.74502600,90.00000000,90.00000000,119.99999770
628,PIrS,1.8622000000000005,5.69354200,5.69354200,5.69354200,90.00000000,90.00000000,90.00000000
629,Nd6Cd(SiS7)2,1.8658000000000006,10.28209347,10.28209347,5.72019700,90.00000000,90.00000000,119.99999661
630,Na6Ca3U2O12,1.8723,10.77698811,10.77698811,5.91323917,79.71832118,79.71832118,143.41825413
631,NaSr2LaTi4O12,1.8721,5.54127700,5.54127700,7.88572500,90.00000000,90.00000000,90.00000000
632,NaU4V3O20,1.8673,7.33532564,7.33532564,18.08441998,78.43447669,78.43447669,89.99990058
633,Na3LaTi2Nb2O12,1.8515999999999995,5.58113990,5.58113990,7.91144041,89.91293936,89.91293936,90.45687649
634,Na2Mg2Fe2Se3(SO8)3,1.8628,9.11960091,9.11960091,9.11960091,57.37391119,57.37391119,57.37390599
635,MgVCrO4,1.8579000000000003,6.03654406,6.03479345,6.02934212,90.24104102,120.04347594,59.74369078
636,MgTi2Pb4WO12,1.8608000000000002,9.00927117,9.00927117,9.00927117,143.30922702,143.30922702,52.86150262
637,LiInO2,1.8477999999999994,5.63867454,5.63867454,5.63867454,134.23492747,134.23492747,66.72130218
638,LiBi3(IO2)2,1.8663000000000003,7.29663592,7.29663592,5.65091200,90.00000000,90.00000000,134.41204659
639,La2GaCoO6,1.8572999999999995,5.50009492,5.50009492,5.50009480,60.63094410,60.63094410,60.63094257
640,K4Ta3NbO12,1.8717000000000001,9.87996803,9.87996803,9.87996753,33.55683996,33.55683996,33.55683611
641,Dy2Mn(GeO3)4,1.8403999999999998,10.03003747,10.03003747,5.03363600,90.00000000,90.00000000,90.65823831
642,CsMnVF6,1.8592,7.64093603,7.64093603,7.64093603,120.66797855,119.96243592,89.45600301
643,Ce2ZrO6,1.8680000000000003,3.80985010,3.80985010,9.21646800,90.00000000,90.00000000,120.00000174
644,CaPbSe2,1.8377,4.31994300,4.31994300,6.12844900,90.00000000,90.00000000,90.00000000
645,Ca8Al3(FeO4)5,1.8697999999999997,5.49865100,8.41133436,10.71762105,108.56508598,90.01020006,108.97686447
646,Ca2AlPbOF8,1.8578000000000001,5.54924500,5.55664282,12.07521219,90.10814736,102.28771793,94.40510637
647,Ba4ScReWO12,1.8574000000000002,10.02987030,10.02987030,10.02987017,33.88997254,33.88997254,33.88996847
648,Ba2Ti4Cr2O13,1.8482999999999996,7.84720675,7.90059000,10.04823286,66.84836995,103.13830062,104.57862129
649,Ba2NaSr2(SbO4)3,1.858,8.33626940,8.33626940,8.27558400,90.00000000,90.00000000,90.49104576
650,Ba3Ta6Fe2O21,1.8641,9.24490042,9.24490042,12.10565375,89.75445095,89.75445095,59.67657970
651,BaNb4Bi4PbO18,1.8629000000000002,12.82314479,12.82314479,5.66769000,90.00000000,90.00000000,154.40159879
652,Ba3In2MoO9,1.8534000000000002,5.95777345,5.95777345,7.31994200,90.00000000,90.00000000,119.99999390
653,AsIrS,1.8645999999999994,5.85085600,5.85085600,5.85085600,90.00000000,90.00000000,90.00000000
654,Er2MgSe4,1.8464999999999998,7.50182263,7.50182263,7.50182263,110.37348899,110.37348899,107.68137400
655,Tm2MgSe4,1.8635000000000002,7.48065881,7.48065881,7.48065881,110.39021483,110.39021483,107.64846491
656,Er2MgS4,1.8549,7.86304296,7.86304296,7.86304296,60.00000000,60.00000000,60.00000000
657,MgNiO2,1.8377,2.98253623,8.01252492,8.32541079,89.12751863,78.58839283,90.22291771
658,Ru(C4N3)2,1.8620999999999999,5.74464758,7.37581647,7.37608114,119.99865687,90.00064232,90.00001955
659,Y2AlN3,1.8437000000000001,6.43688301,6.27627078,5.13815100,90.00000000,90.00000000,119.17797298
660,SiGeN2,1.8658000000000001,7.65674937,5.94538658,5.15012333,90.00000000,106.02685550,90.00000000
661,Ca3Sc3N5,1.8613,6.19320131,7.38138260,8.79176584,106.14223837,108.57166776,97.31667392
662,Ca6Te3N2,1.8438999999999997,8.24802996,8.24802996,8.24802922,94.35565056,94.35565056,94.35563362
663,Pt(C4N3)2,1.8672,14.52599989,11.08846125,6.32520576,108.45955679,83.05871207,112.43755740
664,LiVPO4F,1.8432,6.40972668,10.70009764,12.91335872,89.96919230,89.94000981,89.98248997
665,Sr4Nb3PO14,1.8554999999999997,4.06982260,5.78806951,13.32356152,93.72142272,98.45687599,90.17978391
666,Mg3Co2(Si2O7)2,1.8520000000000003,9.29269100,9.29269100,9.74199921,58.77905996,58.77905996,47.84507270
667,Zn3Fe2(Si2O7)2,1.8437999999999999,9.11666164,9.11666164,9.89451628,60.96280340,60.96280340,50.69167928
668,Ba2CoWO6,1.8426999999999998,5.75646056,5.86129804,5.86177834,87.94667655,60.59830105,119.39824690
669,NaMnO2,1.8463999999999996,3.21567372,11.39199568,5.21514984,75.86862010,83.70143624,80.40511739
670,La4FeSe6O,1.8602999999999996,9.80926109,9.81350089,14.23230620,90.46974363,90.30522071,59.92448013
671,ZnCrPO5,1.8466,5.44053060,5.44425335,7.25496745,71.54497164,108.44064741,84.42991844
672,V2O3,1.8449,3.11156919,6.89020777,7.61419757,81.36893012,90.71645392,76.54371534
673,Ca2CrWO6,1.8633999999999995,5.45654707,5.57965800,7.84476353,90.00004258,90.68999050,89.99993754
674,LiMnP3HO10,1.8498,7.47922206,9.38459483,7.51820083,104.41691400,67.93176058,105.37141430
675,Li8VO6,1.8385999999999998,5.39288856,10.50086324,5.39799160,89.99773433,119.39012581,75.34622860
676,TmAg(PSe3)2,1.8469,6.63995773,6.63995773,15.09668400,90.00000000,90.00000000,119.99999734
677,CdPdF6,1.8435000000000001,5.74165260,5.74165260,5.74165306,54.57848329,54.57848329,54.57847567
678,TmAu2F9,1.8684000000000003,9.18500700,11.21885300,21.87257400,90.00000000,90.00000000,90.00000000
679,Pr3ReO8,1.8658000000000001,6.24078500,7.56949700,15.14657799,69.26136981,90.00000000,90.00000000
680,LiVP4(H2O7)2,1.8395000000000001,7.33151142,9.73243146,8.33878081,69.37573335,102.18261974,77.05452255
681,LiMn(CO3)2,1.8426,4.94107092,12.78720712,7.91533005,89.99698938,90.00242293,84.68707472
682,Mg2Ta2CrO8,1.8637999999999995,5.20845030,6.07971701,10.07894510,105.09953515,91.01042449,90.95632337
683,Cs2NaCr(CN)6,1.8534,8.02868100,7.69762500,13.50810264,55.38538797,90.00000000,90.00000000
684,TlSnF7,1.8405,5.57003800,8.89643300,12.10261074,62.67789385,90.00000000,90.00000000
685,Sm2SiTeO4,1.8579999999999997,6.39481200,8.70398000,9.89361198,84.50727059,90.00000000,90.00000000
686,RbPSe6,1.8540999999999999,7.06010900,11.78553500,12.37850200,90.00000000,90.00000000,90.00000000
687,RbLiZn2O3,1.8520000000000003,10.49877300,10.49877300,3.47434600,90.00000000,90.00000000,90.00000000
688,YCrO3,1.8422999999999998,3.85387900,3.85387900,3.85387900,90.00000000,90.00000000,90.00000000
689,K3CrO8,1.8465,6.20976519,6.20976519,6.20976519,113.39083236,113.39083236,101.88792260
690,VPO5,1.8545,6.25161700,6.25161700,4.65981900,90.00000000,90.00000000,90.00000000
691,NdCrO3,1.8472,3.87396200,3.87396200,3.87396200,90.00000000,90.00000000,90.00000000
692,Mn3WO6,1.8662999999999998,6.31170664,6.31170646,6.31170696,91.25053154,91.25053725,91.25053318
693,Cr2CdO4,1.8710000000000004,6.20340944,6.20340989,6.20341000,59.99999943,59.99999700,60.00000043
694,NaCr3O8,1.8697,5.16493943,5.16493917,14.05640454,90.08323258,90.08323472,64.98590949
695,Ba5Nd8Mn4O21,1.8662,10.61288837,10.61288837,10.61288837,94.50344857,94.50344857,147.45421300
696,NaInS2,1.8682000000000003,7.06240605,7.06240605,7.06240616,31.70287752,31.70287752,31.70288106
697,MnGeO3,1.8550999999999997,5.09491200,5.67337143,5.09516139,116.68401505,119.99793521,90.00408079
698,Sr2PbO4,1.8508000000000004,3.55807600,6.23841900,10.23817000,90.00000000,90.00000000,90.00000000
699,FeNi2BO5,1.8488000000000002,3.03659513,9.32560812,12.35701046,90.00000000,90.00000000,90.00000000
700,Dy3Fe5O12,1.8666999999999998,10.85762549,10.85762549,10.85762549,109.47122063,109.47122063,109.47122063
701,UP2(PbO5)2,1.8396999999999997,6.72315500,6.97257445,10.63265977,86.21922477,78.12917978,81.47758385
702,CoSeO3,1.8577999999999997,5.09180900,6.01505800,7.66077200,90.00000000,90.00000000,90.00000000
703,FeBiO3,1.8605999999999998,5.66217500,5.66254374,5.81859524,119.11880735,89.99992081,119.99798097
704,Cs3Sb2I9,1.8674000000000002,8.57241151,8.57241151,21.73089300,90.00000000,90.00000000,119.99999623
705,SbCl5,1.8399,8.01024641,8.01024641,8.43475900,90.00000000,90.00000000,120.00000339
706,HgI2,1.8528,4.52063300,4.52063300,13.86966900,90.00000000,90.00000000,90.00000000
707,InPb2I5,1.8626000000000005,10.06066613,10.06066613,10.06066613,126.79597067,126.79597067,78.58379571
708,SbPCl8O,1.8686,8.55364900,9.34871200,17.35510900,90.00000000,90.00000000,90.00000000
709,K2H2IrCl5O,1.8664,7.61483900,9.24448500,13.88716700,90.00000000,90.00000000,90.00000000
710,LiCd4Ge5HO15,1.8569,7.19957200,8.07427189,12.49081060,105.74352266,93.08269449,94.85391105
711,LiVPCO7,1.8521999999999998,6.24520800,8.74562246,10.80186073,86.68782124,89.99843109,90.00340184
712,Li3Cr3(PO4)4,1.8601999999999999,7.96656200,8.82177443,13.01723704,85.79656935,89.76309569,89.93081074
713,Li3V3(PO4)4,1.8470999999999997,10.10947049,10.10947049,10.60131014,88.47151811,88.47151811,37.27185309
714,K2Sb4O11,1.8586999999999998,10.61070412,10.61070412,7.29153089,85.19342404,85.19342404,42.37867180
715,Hg2P2S7,1.8397000000000001,6.32554325,6.32554325,8.48646188,76.79233653,76.79233653,57.03027604
716,SbCl2F3,1.8671,10.82246400,11.93148000,17.59915189,51.34062544,90.00000000,90.00000000
717,LiV3O8,1.8523,3.62926500,6.83738300,11.94051526,75.32309935,90.00000000,90.00000000
718,ThI4,1.8452000000000002,8.21355500,8.46589800,14.50008736,68.07280296,90.00000000,90.00000000
719,Ca3AsCl3,1.8439,5.78492800,5.78492800,5.78492800,90.00000000,90.00000000,90.00000000
720,IrS3Cl11,1.8439,13.90680400,8.54377400,15.95361417,73.78182126,90.00000000,90.00000000
721,TlI3,1.8526,6.66472300,9.90564700,10.60547400,90.00000000,90.00000000,90.00000000
722,Pt(SCl3)2,1.8451,4.89485100,6.94917951,8.39910199,104.09874853,96.99604780,92.98101934
723,LaAuO3,1.8372000000000002,4.06924200,5.75254500,13.26282300,90.00000000,90.00000000,90.00000000
724,Li4NCl,1.8500999999999999,6.97121543,6.97121543,6.97121552,30.43269652,30.43269652,30.43270177
725,Ca3PCl3,1.8416000000000001,5.71318200,5.71318200,5.71318200,90.00000000,90.00000000,90.00000000
726,PWO5,1.8714,5.36809800,6.75457100,11.48995400,90.00000000,90.00000000,90.00000000
727,Na3BP2,1.8450999999999997,9.30551900,7.00918000,9.16053538,69.07718165,90.00000000,90.00000000
728,SbCl3F2,1.8445,10.16171891,10.16171891,10.16171891,97.87002272,97.87002272,136.56438346
729,GaCuI4,1.8391,7.34799425,7.34799425,7.34799425,127.43262427,127.43262427,77.54597419
730,Al2Te3,1.8377999999999997,13.13512900,7.28180900,15.32495763,89.94670823,90.00000000,90.00000000
731,Sb4S5Cl2,1.8691999999999998,9.56520400,11.20718600,12.05958000,90.00000000,90.00000000,90.00000000
732,Co(NO3)2,1.8387,7.54180454,7.54736233,7.53497515,90.26013194,90.20419886,90.21762704
733,Cs2PdCl4,1.85,7.63552097,7.63552097,9.48393600,90.00000000,90.00000000,90.02734723
734,Sm2S3,1.8400999999999996,14.04784053,14.04784053,14.04784053,144.80879738,144.80879738,50.61955136
735,La2PbSe4,1.8707000000000003,7.94095966,7.94095966,7.94095966,109.41511842,109.41511842,109.58348342
736,Tb2CdS4,1.8690999999999995,7.30690212,7.30690212,7.30690212,110.44193813,110.44193813,107.54675677
737,UTeO5,1.8508,5.53802700,7.84815800,10.41745700,90.00000000,90.00000000,90.00000000
738,Dy5AgS8,1.8373,7.22257686,7.22257686,7.22257686,109.60710051,109.60710051,109.19980134
739,LiNdS2,1.8683,6.93491691,6.93491691,6.93491691,132.05137859,132.05137859,70.14789209
740,AlCuO2,1.8708999999999998,5.93185875,5.93185875,5.93185887,28.08612755,28.08612755,28.08612584
741,NbFeO4,1.8479999999999994,5.69343500,4.71376600,10.16067205,89.73698599,90.00000000,90.00000000
742,La2Au5F21,1.8445,8.53988300,8.53988300,26.65907700,90.00000000,90.00000000,90.00000000
743,Li7BiO6,1.8615,5.52968000,5.58373213,6.04743907,63.55846673,64.54601636,60.93567652
744,BaTi2O5,1.8594000000000004,8.75671549,8.75671549,9.69479512,77.44445345,77.44445345,25.83605070
745,Na3Sr7Ta3Ti7O30,1.8407999999999998,3.95631700,7.94250700,19.81127548,89.94700264,90.00000000,90.00000000
746,NaSr3LaTi5O15,1.8648000000000002,20.10614252,20.10614252,20.10614252,164.17414503,164.17414503,22.45346248
747,SrTiO3,1.8583000000000003,5.57946045,5.57946045,5.57946045,120.13907092,120.13907092,89.75929041
748,La3CuSiS7,1.8388,10.36158403,10.36158403,5.85549200,90.00000000,90.00000000,120.00000018
749,CrCuO2,1.8698000000000001,3.04945459,11.46137900,3.04945400,89.99996621,120.00015557,90.00003062
750,Cd4GeS6,1.8442,7.27927422,7.27927422,12.66627835,72.61856586,72.61856586,59.82021305
751,Tm2TiO5,1.8715000000000002,7.38874866,7.38874866,17.34533912,88.69089860,88.69089860,62.37055021
752,Sr8Ga16S31,1.8450000000000002,11.98422400,12.08139114,12.25468012,104.94459771,104.64359179,118.67668392
753,S5N4O3,1.8444000000000003,10.96161500,7.44404300,12.82644068,60.32761299,90.00000000,90.00000000
754,K3MnO3,1.8512,6.73677576,6.83150335,11.67632100,90.00010052,90.00015510,96.06409427
755,SeBr,1.8382,15.24108700,5.31824600,7.70196480,84.43714148,90.00000000,90.00000000
756,VCdAgO4,1.8466,5.54324400,7.09974300,10.04215500,90.00000000,90.00000000,90.00000000
757,Hg3Se3O10,1.8688999999999998,5.44745700,8.66996600,11.39251824,71.83502360,90.00000000,90.00000000
758,Mn3Ag2(P2O7)2,1.8625000000000003,5.46161100,6.67433010,16.69377859,80.77788015,81.92487652,72.63077292
759,Rb2U3(TeO7)2,1.8573999999999997,7.03907200,7.37130910,8.39256733,108.19420451,101.13724684,98.32722528
760,Rb4CO4,1.8394,5.76540500,5.76540500,5.76540500,90.00000000,90.00000000,90.00000000
761,Ba2NdBiO6,1.8716999999999997,6.22746845,6.22746845,6.28380911,60.10863460,60.10863460,60.15765151
762,TiZn(BiO3)2,1.8586999999999998,5.30076100,5.30076100,4.99544500,90.00000000,90.00000000,90.00000000
763,CsK2CoO2,1.8378999999999999,6.24355691,9.79880479,9.80118609,75.09425550,99.86126536,86.46548168
764,CoTeMoO6,1.8487999999999998,5.11611513,5.33199836,9.18593502,90.01099808,89.99646012,90.00615388
765,AgNO3,1.8677,6.48132704,6.48132704,6.48132711,47.67131341,47.67131341,47.67131286
766,Sr2UZnO6,1.8577,5.91875200,5.84787300,10.12555830,54.71914104,90.00000000,90.00000000
767,BaMn2O8,1.8553000000000002,9.91487621,9.08515790,7.23143473,73.85890735,61.66585444,44.47523821
768,Sr7Mn4O13,1.8506999999999998,9.98434000,6.94116400,10.29548345,85.43507620,90.00000000,90.00000000
769,K2NaMnO4,1.8444,7.81866614,7.81866635,10.14696441,110.70893084,110.70893220,94.71222972
770,ZnS,1.8580999999999999,3.85156600,3.85156600,100.71844100,90.00000000,90.00000000,119.99999999
771,LiAlSiH2O5,1.8388,4.79655600,9.02801600,11.74449600,90.00000000,90.00000000,90.00000000
772,BaSnHgS4,1.8593,6.46951818,6.46951818,11.09067000,90.00000000,90.00000000,117.18815644
773,Ca3Zn3(TeO6)2,1.8542999999999998,11.24566376,11.24566376,11.24566376,109.47122063,109.47122063,109.47122063
774,TaP4S4Cl5,1.8707000000000003,7.08650900,9.63895374,14.11726447,103.63272876,86.89421580,111.15099512
775,Sm3CuGeS7,1.8468,10.07127029,10.07127029,5.87278700,90.00000000,90.00000000,120.00000189
776,Pr10S14O,1.8401999999999998,14.79030791,14.79030791,14.79030791,117.87926436,117.87926436,93.71422785
777,Na3Ga3(TeO6)2,1.8466999999999998,10.86438222,10.86438222,10.86438222,109.47122063,109.47122063,109.47122063
778,Li2MnF5,1.843,5.69933434,5.69933434,7.51524103,70.23866059,70.23866059,52.64966356
779,In2GaBiS6,1.8707000000000003,3.84281200,11.38224500,12.46611366,63.25559628,90.00000000,90.00000000
780,Cs5Nb2S4Br9,1.8649,10.88893862,10.88893862,10.88893862,138.49124867,117.88147512,77.49654095
781,UTl2(TeO4)2,1.8434999999999997,7.59127700,8.18817315,9.14551398,92.89596878,107.95298445,108.53444371
782,Y3CuGeS7,1.8533,9.89241415,9.89241415,5.82526600,90.00000000,90.00000000,120.00000099
783,KV2CrO7,1.8484,4.93412900,6.97864600,8.36943531,78.28094268,90.00000000,90.00000000
784,CaFeSbAs2O7,1.8443999999999998,12.84812526,12.84812526,12.84812526,100.40021591,100.40021591,129.71388816
785,Tb3CuGeS7,1.8521999999999998,9.90966334,9.90966334,5.84075700,90.00000000,90.00000000,119.99999557
786,MnPtF6,1.8636000000000001,5.65058691,5.65058691,5.65058597,56.66770662,56.66770662,56.66771182
787,Cd(AuF6)2,1.848,7.28140496,7.28140496,10.36865254,68.39504525,68.39504525,76.54377835
788,TiZn(BiO3)2,1.8587000000000002,6.20107272,6.20107272,6.20107272,129.36286177,129.36286177,74.42741035
789,LiMnF4,1.8523,4.73684300,5.53378300,5.82388585,66.52984208,90.00000000,90.00000000
790,VAg2PO6,1.8532,7.05730018,7.05730018,6.43455209,89.97026519,89.97026519,53.46638499
791,KCr2FeO8,1.8518000000000001,5.55765160,9.21189461,8.89218017,64.87931165,90.00174184,107.55287153
792,LiFe(SeO3)2,1.872,9.19981554,9.19981554,9.19981554,107.74157546,107.74157546,112.98881853
793,K3BSb4O13,1.8633000000000002,7.23309700,7.34553488,13.46058552,82.03230662,80.15291967,63.05176983
794,Sb2ClO2F11,1.8624999999999998,10.53498000,7.77626800,15.07622214,62.96219298,90.00000000,90.00000000
795,Hg3AsBrO4,1.8662999999999998,8.70107000,8.70107000,8.70107000,90.00000000,90.00000000,90.00000000
796,Ag2Bi2S3Cl2,1.8582999999999998,7.31741900,11.18092455,11.42075444,104.92426220,89.65925611,91.87502258
797,CrHg3(PbO4)2,1.8661999999999999,22.39420600,6.57620600,7.19657041,70.48331464,90.00000000,90.00000000
798,K2LaNb5O15,1.8386999999999998,12.80775000,12.80775000,3.97715700,90.00000000,90.00000000,90.00000000
799,LaGaSe2O,1.8513000000000002,5.99136800,6.01113100,12.44816900,90.00000000,90.00000000,90.00000000
800,CrBiO3,1.8454000000000006,5.46763900,5.67657300,7.84075600,89.99995058,90.00093606,90.00017467
801,UTl2(TeO4)2,1.8389000000000002,8.50609000,5.53682200,21.95071545,77.27694939,90.00000000,90.00000000
802,Sm10S14O,1.8468999999999998,14.49911326,14.49911326,14.49911326,117.89433710,117.89433710,93.68752738
803,SbI(ClF3)2,1.8658,8.21803305,8.21803305,13.24702300,90.00000000,90.00000000,96.62586382
804,BaFe2(SeO3)4,1.8400999999999998,5.30942000,10.34760100,14.19222511,49.20963783,90.00000000,90.00000000
805,As2Pb4S6ICl,1.8434,6.79900500,9.71726600,11.77591500,90.00000000,90.00000000,90.00000000
806,Fe3(TeO3)4,1.8411,7.46834600,9.30962200,16.13440003,71.51212202,90.00000000,90.00000000
807,CsVP2O7,1.8684000000000003,10.20264800,7.84044200,8.48798905,75.05474120,90.00000000,90.00000000
808,ICl,1.8618999999999999,5.39071200,11.61393700,12.52418771,66.62918136,90.00000000,90.00000000
809,La2GaN3,1.8709000000000007,6.19517810,6.19517810,12.00902549,88.35352964,88.35352964,124.77928247
810,SrLiGaN2,1.8403999999999998,5.97786825,5.97786825,12.74500667,89.29676796,89.29676796,118.34307869