,pretty_formula,bandgap,cell_length_a,cell_lentgh_b,cell_lentgh_c,cell_angle_alpha,cell_angle_beta,cell_angle_gamma
6752,UCO5,2.2901,4.34859000,4.89102600,9.66548300,90.00000000,90.00000000,90.00000000
6753,Ba17Ho16Zn8Pt4O57,2.2985,16.57439271,16.57439271,16.57439271,91.72740531,91.72740531,160.00313173
6754,Ba13Dy8Zn4Pt4O37,2.3013000000000003,13.68853112,13.68853112,13.68853112,92.55331973,92.55331973,155.63027609
6755,K2SmP2S7,2.3073,11.95999658,11.95999658,9.05142618,83.24089089,83.24089089,32.94283024
6756,Na2U(MoO5)2,2.272,7.32983400,11.65246100,12.15502700,90.00000000,90.00000000,90.00000000
6757,CoF2,2.2721,3.21855600,4.74679700,4.74679700,90.00000000,90.00000000,90.00000000
6758,Bi2CO5,2.2747,5.53552100,5.55540600,28.02601700,90.00000000,90.00000000,90.00000000
6759,Ba17Dy16Zn8Pt4O57,2.2898000000000005,16.61414871,16.61414871,16.61414871,91.72895056,91.72895056,159.99410044
6760,Cr2PBrO4,2.2997,6.33709951,6.50969380,11.86156600,89.99960792,90.00005535,90.60485442
6761,Bi2O3,2.2769999999999997,5.25405100,5.72460000,12.81170400,90.00000000,90.00000000,90.00000000
6762,KSb(PS3)2,2.2731000000000003,7.87765200,6.76063400,9.90608372,87.60755304,90.00000000,90.00000000
6763,KUP3O11,2.2712,15.35773200,8.60006800,15.05504560,88.11804042,90.00000000,90.00000000
6764,CsTcNClO4,2.3021000000000003,6.62629500,8.80125700,11.67825300,90.00000000,90.00000000,90.00000000
6765,K2OsN3Cl3O5,2.2950999999999997,7.09743800,7.71143038,10.54125088,90.34028801,101.66922435,90.53912736
6766,Te2Xe(OF5)2,2.2897,9.88284900,10.71772200,10.88290318,73.03190029,90.00000000,90.00000000
6767,S2NO,2.2836,4.49351500,8.16418597,10.82001842,108.35962133,92.62523545,103.49298942
6768,NdTe2BrO5,2.2790999999999997,10.25693816,10.25693816,10.25693816,149.18697094,149.18697094,44.13616692
6769,Na2TiFe5(Si3O10)2,2.3046,9.06161100,9.84138503,10.55470166,115.11618673,83.24148425,114.19552948
6770,TeWNCl4F5,2.2851,6.39145700,6.41383887,14.29863355,83.87365080,86.54109101,80.89666489
6771,SiO2,2.2809999999999997,11.00515127,11.00515127,11.00515191,114.35565716,114.35565716,114.35565699
6772,Ba5Li2(WO5)3,2.2925000000000004,5.84644311,5.84644311,24.33998800,90.00000000,90.00000000,119.99998995
6773,SrLi2Ta2O7,2.2954999999999997,9.62729228,9.62729228,5.63089300,90.00000000,90.00000000,145.95226230
6774,AlS5N5Cl4,2.2857,9.90377000,14.33676000,21.48499900,90.00000000,90.00000000,90.00000000
6775,CS3N5Cl,2.2805,10.97268600,5.01101600,14.76452713,74.97737533,90.00000000,90.00000000
6776,NaAg(NO2)2,2.2879,7.74887957,6.92571364,6.72292139,69.16724832,56.65097529,54.18177638
6777,KBi6IO9,2.2881000000000005,15.26866180,15.26866180,15.26866180,109.47122063,109.47122063,109.47122063
6778,Na3FeO3,2.2672,8.61827428,8.61827428,6.20537038,69.49328826,69.49328826,77.72003246
6779,S3N3ClO2,2.3052,9.73990684,9.73990684,12.51596465,67.41357007,67.41357007,42.16539367
6780,Zn4SiTePbO10,2.2881000000000005,6.62229800,8.41332900,15.84203700,90.00000000,90.00000000,90.00000000
6781,LiUAsO6,2.3061,5.17043100,5.43623447,10.12710774,90.30572281,97.37318712,104.32309717
6782,Li2U3P2O15,2.2678000000000003,13.67743445,13.67743445,13.67743445,149.41633234,149.41633234,43.79884407
6783,K2Nb3Cl7O5,2.2949,9.65668465,9.65668465,11.31733892,69.91254741,69.91254741,55.54566694
6784,Ba17Y16Zn8Pt4O57,2.2816,16.63572954,16.63572954,16.63572954,91.72923838,91.72923838,159.99241871
6785,GaS5N5Cl4,2.2969,9.93614800,14.38905000,21.45415800,90.00000000,90.00000000,90.00000000
6786,Ba17Er16Zn8Pt4O57,2.3053,16.53423761,16.53423761,16.53423761,91.72715706,91.72715706,160.00458300
6787,Hg2Mo2O7,2.2744,7.31633220,7.31633220,14.93575713,76.56903193,76.56903193,65.27129311
6788,Cs3AlO3,2.2687999999999997,13.05653500,7.28388900,8.02173295,65.83000468,90.00000000,90.00000000
6789,CdI2,2.2916,4.33289153,4.33289153,29.63997600,90.00000000,90.00000000,119.99999281
6790,NbCl5,2.2959,10.75808000,8.44681000,11.96812903,45.74019629,90.00000000,90.00000000
6791,Mg(B6C)2,2.2943000000000007,6.91006530,6.91006530,6.91006530,132.05232454,109.90264851,89.41373888
6792,Tl2Ni(CN)4,2.2873,7.38498600,6.31324200,9.86684491,67.68592829,90.00000000,90.00000000
6793,K2HgCl4,2.2968,8.11870600,9.19180200,13.64945700,90.00000000,90.00000000,90.00000000
6794,NiH12C4(N2O3)2,2.2833,9.30472455,9.30472455,7.15752500,90.00000000,90.00000000,120.00000395
6795,WSeS2Cl5,2.2777,10.19472350,10.19472350,14.45990950,65.90506812,65.90506812,57.14074440
6796,K3Ta2Ag3S8,2.2944000000000004,12.91070115,12.91070115,14.37275475,61.19018753,61.19018753,26.87747053
6797,Cs3Cu2Cl5,2.3072,9.47826300,10.63628800,13.30294600,90.00000000,90.00000000,90.00000000
6798,Rb3Er3(PS4)4,2.2821999999999996,16.34075300,9.29594300,19.98991614,67.72207661,90.00000000,90.00000000
6799,Ba6Nb4S13O3,2.2867,7.95007000,14.52291400,24.58028300,90.00000000,90.00000000,90.00000000
6800,SnH14C4(Br2N)2,2.303,12.51559200,6.73121200,8.63605083,83.26952049,90.00000000,90.00000000
6801,CdPtF6,2.2733,5.79143953,5.79143953,5.79143928,54.25815821,54.25815821,54.25815708
6802,CsInI4,2.2731,19.57743200,7.81948200,9.03297733,73.74171569,90.00000000,90.00000000
6803,OsC3IO3,2.2818,14.18497000,6.51874200,7.42982150,88.88512595,90.00000000,90.00000000
6804,Ba3Nb6(Si2O13)2,2.2806,9.18141197,9.18141197,7.85085400,90.00000000,90.00000000,119.99999978
6805,CrPC5Br3O5,2.3017,6.79379900,6.91411695,13.82913796,88.01887074,87.18002771,87.78222657
6806,Sr4MoN4O,2.2746999999999997,14.90337800,9.02475300,10.80328427,77.83660109,90.00000000,90.00000000
6807,PbN6,2.2879000000000005,6.69631700,11.81823100,16.38686700,90.00000000,90.00000000,90.00000000
6808,Hg2Pb(SBr)2,2.3070000000000004,9.25281700,10.97416200,14.19477999,65.76358916,90.00000000,90.00000000
6809,Cs3V4Te2ClO14,2.2750000000000004,5.57968600,6.94085600,24.44350500,90.00000000,90.00000000,90.00000000
6810,H5IO6,2.278,18.67853300,4.97986800,5.99087427,58.04718053,90.00000000,90.00000000
6811,Sn3(HO2)2,2.3050999999999995,8.00802900,8.00802900,9.14954300,90.00000000,90.00000000,90.00000000
6812,MoH4O5,2.2939,4.05172900,6.39339616,7.72918399,97.53976492,90.12719830,90.01294967
6813,Co(HO)2,2.2891000000000004,3.42649996,3.42649996,4.44016500,90.00000000,90.00000000,119.99999923
6814,Fe(HO)2,2.2800000000000002,3.31057005,3.31057005,4.64823612,85.39175495,85.39175495,59.82321657
6815,Mo2H2O7,2.2935,3.80801400,7.40245700,9.46779607,75.60711090,90.00000000,90.00000000
6816,U(OF)2,2.303,5.26058128,5.26058128,4.29407966,79.72250271,79.72250271,37.84287637
6817,HgN3,2.3040000000000003,12.83163300,3.64152800,6.38259043,69.26581531,90.00000000,90.00000000
6818,Cs2Th(PS3)3,2.2752999999999997,12.55553800,12.61756561,12.77593948,114.28809816,102.55124883,99.32914296
6819,Bi32P10Pb3O76,2.2872000000000003,11.47358697,11.47358697,16.54691218,80.29788396,80.29788396,60.65829125
6820,CsGeBr3,2.2935999999999996,5.78863072,5.78863072,5.72807918,88.19674636,88.19674636,90.40477709
6821,Na4H6Ru,2.2907,6.50171049,6.50171049,6.50171035,89.18745960,89.18745960,89.18745408
6822,Na2H4Pd,2.2828,5.02961623,5.02961623,5.02961623,115.45940409,115.45940409,98.06272055
6823,KVHSe2O7,2.2874,10.62278500,4.15925100,7.95907151,83.16250003,90.00000000,90.00000000
6824,VP2Pb2O9,2.2786,9.17648400,8.88283700,9.99229507,79.47494706,90.00000000,90.00000000
6825,NaTiFeO4,2.2689000000000004,2.94994600,9.12496000,11.22757600,90.00000000,90.00000000,90.00000000
6826,Mo6PbBr14,2.2911,13.87194000,13.87194000,13.87194000,90.00000000,90.00000000,90.00000000
6827,FeSb2WC8Se2(O2F3)4,2.2688,12.48512300,12.23816000,15.42608769,87.35522073,90.00000000,90.00000000
6828,LiLaTiO4,2.2830999999999997,3.77593800,3.77593800,12.34503300,90.00000000,90.00000000,90.00000000
6829,PbN6,2.2793,6.73047500,11.54312700,16.49239600,90.00000000,90.00000000,90.00000000
6830,CuCSN,2.3004000000000002,5.91519214,5.91519214,5.91519229,38.01868666,38.01868666,38.01868234
6831,LiNb(PO4)2,2.2718000000000003,7.78605800,5.20257300,7.84919787,86.10254230,90.00000000,90.00000000
6832,V2Bi4O11,2.3001,5.64827900,5.94524500,15.53150000,87.50665211,90.00000000,90.00000000
6833,Ba3LiTa3Ti5O21,2.2708000000000004,9.21835687,9.21835687,11.73045800,90.00000000,90.00000000,120.29334046
6834,LiCa4(BN2)3,2.2792000000000003,6.17841056,6.17841056,6.17841056,109.47122063,109.47122063,109.47122063
6835,Re2C9S3O8,2.2711,7.23962000,8.68698246,14.13599359,83.67750522,79.46530231,75.30002600
6836,In4Br7,2.2927,7.81043366,7.81043366,31.98797909,82.47310232,82.47310232,59.16733213
6837,In2Br3,2.3003,13.22948000,13.34453400,33.05137021,89.88359983,90.00000000,90.00000000
6838,Bi15AsO25,2.3058,17.24219377,17.24219377,17.24219312,50.47068297,50.47068297,50.47068393
6839,Na2FeSn(PO4)3,2.2908999999999997,8.98070484,8.98644663,17.97638877,58.92042857,58.97427931,58.98582267
6840,BaNa5LiCo5F18,2.2683999999999997,6.92269500,6.93605714,17.41465928,97.59672447,97.61047576,109.45816590
6841,K2LiNb6(PO8)3,2.2981,8.53132200,8.54203972,8.54512292,104.07953033,104.19523626,104.17415634
6842,K2Na5Al7Si5O24,2.3028,12.19603400,12.70265504,12.70633267,89.77277261,89.69772686,89.76588901
6843,NaLaCoWO6,2.2846999999999995,11.84309300,7.28547500,14.41044200,87.80889405,90.00000000,90.00000000
6844,K4Ti3Ni(PO4)6,2.2979,9.96819000,9.96286000,9.97207597,89.82986039,90.00000000,90.00000000
6845,CsScAsO4F,2.2706999999999997,10.35439000,10.50696000,10.74090000,90.00000000,90.00000000,90.00000000
6846,CsKMo4(P3O13)2,2.2981999999999996,19.19060700,6.49297200,19.13622501,88.00965471,90.00000000,90.00000000
6847,UP3H7O8,2.3075,7.25255200,7.34379800,17.74345900,90.00000000,90.00000000,90.00000000
6848,LiMo2P3O13,2.3044,18.77440500,6.48859200,9.64801324,72.55324716,90.00000000,90.00000000
6849,Rb10Al24Cd7(SiO4)24,2.2832999999999997,17.82216700,17.82631076,17.83688915,60.10388980,60.06538753,60.03464071
6850,SiC,2.3028999999999993,3.09200759,3.09200759,5.07334700,90.00000000,90.00000000,119.99999117
6851,CaMgUH24C3O23,2.2853,14.79046300,6.49048200,11.22040383,80.31295026,90.00000000,90.00000000
6852,CrH10SNO10,2.2817,12.23891205,6.97357900,11.51933951,90.00000000,110.18022418,90.00000000
6853,Na2Ca29ZrSi16(O7F2)8,2.3014,7.75027500,11.38093315,20.22545509,85.41554640,84.58918270,88.57269025
6854,Mn2Si(H2O3)2,2.2988999999999997,5.41219600,7.30311100,12.88743600,90.00000000,90.00000000,90.00000000
6855,MnH16C4N(OF2)2,2.2691,8.60223877,8.60223877,10.87107522,82.56723685,82.56723685,38.07429802
6856,Fe2H13C6NCl2O11,2.3057,8.89536250,8.89536250,12.64788142,79.80688649,79.80688649,116.54105900
6857,NaFe3P2(H4O7)2,2.2696,7.41917700,7.41917700,19.64348800,90.00000000,90.00000000,90.00000000
6858,V2As3H17C4N8O17,2.2965,8.67945600,11.23498174,12.63193398,83.13618770,82.66036416,69.91955620
6859,TiNi(PO4)2,2.2935999999999996,8.46549189,8.46549189,8.46549147,61.13116633,61.13116633,61.13116273
6860,Ba3(BrO)2,2.2934,8.20069600,7.59881100,7.89815471,65.24476271,90.00000000,90.00000000
6861,LiVPO4,2.2687999999999997,5.51276347,6.49283982,9.46941212,107.26333054,78.45846981,103.69772629
6862,Li3V4O11F,2.3063,5.16222000,5.21776132,8.34440649,93.00948520,96.09630831,100.94972353
6863,LiFe(CO3)2,2.2938,6.16427069,6.16427069,8.30347605,82.67357696,82.67357696,126.06705264
6864,LiMn2F9,2.2695000000000003,5.22234100,5.26049537,14.59818153,92.04736841,93.58591976,118.71798806
6865,Li2VCrP2(HO5)2,2.3035,5.17448550,10.66045989,7.36525261,75.33946424,108.66300075,82.92311724
6866,CrOF,2.2999,3.05411100,4.86381800,9.63838300,90.00000000,90.00000000,90.00000000
6867,Li8TiS6,2.2925,6.89498237,6.89498237,13.46207700,90.00000000,90.00000000,120.00000357
6868,LiVF4,2.2922,6.13808081,6.13808081,6.13808081,125.21548589,119.49722031,86.04146675
6869,BaSrO2,2.2833,3.84185700,3.84185700,5.42779800,90.00000000,90.00000000,90.00000000
6870,Sn2OF2,2.296,8.04110200,8.04110200,5.64574000,90.00000000,90.00000000,90.00000000
6871,Li2MnO2F,2.2797,5.23561772,5.23561772,5.08226572,82.46285568,82.46285568,121.83847473
6872,YbTiO3,2.3002000000000002,5.33387900,5.49145400,7.61434800,90.00000000,90.00000000,90.00000000
6873,TiO2,2.2943,2.98093200,4.80245000,18.70762300,90.00000000,90.00000000,90.00000000
6874,Cs3TmO3,2.2674,7.57910791,7.57910791,7.63070205,84.00180497,84.00180497,116.60908674
6875,MnP2WO8,2.2865,5.03586409,10.29886610,6.05256600,90.00188407,90.00322943,92.77274386
6876,Li4NbFe(WO6)2,2.3045,5.18059717,7.57568538,10.97773743,85.44700634,89.89018078,90.08095200
6877,Tb2SeO2,2.3075,3.87354443,3.87354443,6.87125600,90.00000000,90.00000000,120.00000730
6878,Li2TiVO5,2.2828,8.14415391,8.14415490,8.14415057,71.31907481,111.06488443,71.32039879
6879,Li2CoGeO4,2.2966999999999995,7.54627313,7.54624911,8.14122726,64.94378177,64.94355212,94.94490540
6880,LiFe2OF5,2.2729,4.74463200,4.74750800,10.35771438,62.86860316,90.00000000,90.00000000
6881,Li6FeO4,2.2934,6.68641903,8.16087126,8.15925516,110.17051265,89.99800706,90.01037626
6882,Rb2MgO2,2.2798999999999996,5.63648100,6.52831300,10.93176600,90.00000000,90.00000000,90.00000000
6883,LiCrPO4,2.2924999999999995,5.77438300,7.78185300,14.14579200,90.00000000,90.00000000,90.00000000
6884,Li2Ti2CoO6,2.2997999999999994,5.20123990,11.61166415,8.91644486,67.67095828,88.97443180,102.53927122
6885,LaTa3O9,2.3038,8.84288334,8.84288334,9.74773276,57.02799865,57.02799865,36.89016574
6886,Li2Sn(PO3)6,2.2920999999999996,7.59079400,7.65430294,7.68790204,106.45456168,101.24834131,114.88806190
6887,LiTi2V3O12,2.2849,8.90754300,9.19613239,12.53573530,90.16353133,90.53915087,90.04130770
6888,LiFeP2O7,2.2848999999999995,8.41612600,6.95849500,9.33130325,68.61715168,90.00000000,90.00000000
6889,LiSn2P5O16,2.2785,10.34726700,7.36983600,10.66318278,70.05891550,90.00000000,90.00000000
6890,Zr4N2O5,2.2924,8.90776324,8.90776324,8.90776324,109.15423455,109.15423455,110.10707006
6891,BaZn2As3HO11,2.3039,8.35559900,10.08254900,12.04543308,84.77262970,90.00000000,90.00000000
6892,LiCoPO4,2.2708,4.89146318,4.89149002,15.98788804,90.00371612,98.79120342,59.99455665
6893,LiNi6O6F,2.2732,15.00139604,15.00139604,15.00139604,168.62413448,168.62413448,16.11455170
6894,MnOF,2.2683,3.72463500,8.93638600,5.45922200,90.00328269,89.99975102,89.99846789
6895,LiFeSiO4,2.2794,5.89427500,6.50212069,9.47359611,76.34276882,87.28017982,79.11277290
6896,K2Mg(H2N)4,2.2680000000000002,7.22868300,7.49339600,13.63036604,75.57949394,90.00000000,90.00000000
6897,Li2Ti7Nb6O30,2.2741,5.19335084,5.19335084,23.75020900,90.00000000,90.00000000,120.00001069
6898,Li4Ti11O24,2.2962,10.26379631,10.26379631,8.50023487,65.92981488,65.92981488,33.92879504
6899,Li3MnFeCo(PO4)3,2.2680999999999996,10.47267200,6.08500400,14.29319900,90.00000000,90.00000000,90.00000000
6900,V6O5F19,2.2889,5.38316000,5.58729705,14.94140505,100.53832635,89.59683184,93.59669883
6901,Li3Mn3OF7,2.2852,6.19293233,8.85717500,6.32869454,90.12734254,89.97678585,91.97088834
6902,Ba4Li4Ti19O44,2.3023,5.88236300,10.06909339,14.17872653,89.71125982,89.66452501,89.78576114
6903,VPO5,2.2993,6.09186700,6.09186700,4.49588300,90.00000000,90.00000000,90.00000000
6904,LiTi2V3O12,2.3026999999999997,9.14654800,9.00573100,15.47050351,54.83301191,90.00000000,90.00000000
6905,LiMnF5,2.2836,4.98422000,5.78698000,13.10666700,90.00000000,90.00000000,90.00000000
6906,Li7CoOF7,2.2671,5.87549866,10.17328197,10.17325801,70.62985060,90.05961687,90.06656551
6907,LiCo2OF3,2.2746000000000004,5.19325700,5.99905200,10.29134700,90.00000000,90.00000000,90.00000000
6908,P2WO8,2.2697,5.25589400,11.12565000,11.25366200,90.00000000,90.00000000,90.00000000
6909,Li3V(SiO3)3,2.2683000000000004,5.37557200,11.79932600,12.73911300,90.00000000,90.00000000,90.00000000
6910,Li3CoPCO7,2.2883999999999998,6.37032200,8.64973900,9.66695976,84.73789046,90.00000000,90.00000000
6911,Li3CoPCO7,2.277,6.44998700,8.43134529,9.98311723,85.29959908,89.75791698,89.87743504
6912,Li3CoPCO7,2.2695000000000003,6.44108800,8.46663701,9.93353490,95.49998379,90.25876106,90.44556646
6913,Li15Ti11Nb5O42,2.2812,5.13793008,5.13793008,33.16918400,90.00000000,90.00000000,120.00000108
6914,Gd3AsO7,2.2883999999999998,6.36154100,6.45268399,7.50177404,106.63756896,89.93695135,98.16626621
6915,LiVF4,2.279,6.31155600,5.28975800,10.53770347,70.28889889,90.00000000,90.00000000
6916,Li2Mn3Si3O10,2.2896000000000005,8.42071358,8.42071358,10.61308863,86.87308745,86.87308745,33.92691597
6917,Li3V2F9,2.2881,5.13143159,5.13143159,14.25495900,90.00000000,90.00000000,119.99999475
6918,Cs3HoO3,2.2943,7.62724800,8.32371500,12.28463038,84.74355788,90.00000000,90.00000000
6919,Li2FePCO7,2.2681999999999998,5.07340200,8.45584845,12.83393620,94.48551779,93.64363948,95.52513850
6920,Li2CrCSO7,2.293,6.44567800,10.26051418,8.98859677,87.56221380,90.00003626,89.99983690
6921,Li5Mn2P2(CO7)2,2.2671000000000006,6.44234900,8.51357500,10.09104096,86.09875414,90.00000000,90.00000000
6922,Li2VBO4,2.2769999999999997,6.24825708,5.18346700,4.75028439,89.95149992,89.98911318,89.96637779
6923,Li2VBO4,2.2955,4.75933300,6.23912500,10.35917000,90.00000000,90.00000000,90.00000000
6924,K5YO4,2.2965999999999998,6.97483600,12.12347000,21.24204000,90.00000000,90.00000000,90.00000000
6925,Dy2SeO2,2.2862,3.84401283,3.84401283,6.82585700,90.00000000,90.00000000,120.00001424
6926,BaTa6O16,2.2768,9.23290106,9.23290106,3.91802900,90.00000000,90.00000000,111.42154669
6927,LiZnCr3(SO4)6,2.2921,8.31210100,8.31728291,8.90014660,62.20374506,62.32803560,60.36149811
6928,Ba3Ti2O7,2.3038000000000003,11.11027027,11.10746179,4.07030335,79.48262151,79.40489247,21.11248602
6929,Li2Cr2(SO4)3,2.2954,8.11811419,8.11811419,9.27424514,65.45999709,65.45999709,64.49653551
6930,ZnCrO4,2.2721,8.32554500,5.27417200,8.26745439,57.55100592,90.00000000,90.00000000
6931,Li3FeO3,2.2955,11.27619700,5.41526200,5.72410402,58.47466435,90.00000000,90.00000000
6932,Be(CoO2)2,2.2683,5.46979764,5.46979764,5.46979764,60.00000000,60.00000000,60.00000000
6933,Ba2LaI7,2.3073,12.39567700,10.01326300,18.61215949,58.72612921,90.00000000,90.00000000
6934,Hg2W2O7,2.3069,7.28367157,7.40976078,8.45518280,63.55477860,65.06191488,62.70027219
6935,Li2Cr2O7,2.3034,6.46926500,6.73530001,6.76264974,93.26268739,111.02097486,93.36854473
6936,Ti(SO4)2,2.271,8.88581858,8.88581858,8.88581915,56.11035551,56.11035551,56.11035720
6937,Li8Te2O9,2.2988000000000004,6.02130100,9.14449333,15.71093045,86.97267273,100.69367108,109.06995343
6938,BeCrO4,2.2718,5.27925600,8.51696300,8.65707386,61.40419694,90.00000000,90.00000000
6939,LiTi2(PO4)3,2.2961,8.64471800,8.70349200,12.03365600,90.00000000,90.00000000,90.00000000
6940,TiSnO4,2.2698,5.86246500,5.86246500,5.86246500,141.20938769,141.20938769,56.02153657
6941,LiVP2H5O9,2.2968,6.45918300,7.86913800,15.13981100,90.00000000,90.00000000,90.00000000
6942,Li3SbS3,2.2977000000000007,11.92475600,4.15421200,12.73048327,73.08823262,90.00000000,90.00000000
6943,Li3SbS3,2.2746,10.51850500,8.51688300,13.73167406,88.50374121,90.00000000,90.00000000
6944,BaLi2NiO3,2.3059000000000003,13.75532400,5.43754300,11.19042303,70.78129371,90.00000000,90.00000000
6945,Mn2NbFe3(PO4)6,2.2995,8.70573296,8.70573296,8.70573310,59.96080869,59.96080869,59.96081340
6946,CrFe3Sb2(PO4)6,2.2865999999999995,8.84389740,8.84389740,8.84389703,58.71554481,58.71554481,58.71555014
6947,Li2Ti3NiO8,2.2796000000000003,5.99089724,8.45892145,11.92996645,90.00331389,90.00138704,89.69424010
6948,Ca2Ti6N2O11,2.2745,7.75089648,7.75089648,9.50175871,80.71360045,80.71360045,28.03302610
6949,LiV2F7,2.2743,5.19147200,5.55087000,10.30716269,79.77957711,90.00000000,90.00000000
6950,BaO,2.2843,3.92385990,3.92385990,52.70602800,90.00000000,90.00000000,120.17806991
6951,LiFe2OF5,2.2848,4.73531875,4.73531875,18.44756911,89.94018508,89.94018508,90.00061601
6952,Ba3(BrO)2,2.2906,6.36713700,7.58459800,19.73879600,90.00000000,90.00000000,90.00000000
6953,NaBi5O8,2.286,16.42652600,7.91049000,10.92396788,49.53465566,90.00000000,90.00000000
6954,Gd3NbO7,2.2855000000000003,6.56404430,6.56404430,7.61974500,90.00000000,90.00000000,109.34345641
6955,Li2FeO2F,2.3052,5.18057437,5.18057762,9.84950552,85.11539704,94.88481065,60.16508908
6956,LiCo2OF3,2.2981,5.98528500,6.22112200,8.71705400,90.00000000,90.00000000,90.00000000