,pretty_formula,bandgap,cell_length_a,cell_lentgh_b,cell_lentgh_c,cell_angle_alpha,cell_angle_beta,cell_angle_gamma
6339,RbNiW(OF)3,2.2607999999999997,7.34695503,7.34781445,7.39280251,118.58085644,61.42346234,88.41218304
6340,TiCdFe(PO4)3,2.2582999999999998,8.80207394,8.80207394,8.80207392,58.88666486,58.88666486,58.88667191
6341,SrTiFe(PO4)3,2.2526,9.08380195,9.08380195,9.08380225,56.48482721,56.48482721,56.48483330
6342,Na3VSi4(HO6)2,2.2355000000000005,7.60474200,8.78852759,9.22433509,117.53566225,96.09645559,88.45389058
6343,MnH9CNCl3O2,2.2377,9.07660100,7.80070400,11.67315545,88.10389224,90.00000000,90.00000000
6344,Li2TiCr(PO4)3,2.2411,8.76676800,8.63123100,14.70878636,54.45699609,90.00000000,90.00000000
6345,Cs4Zr3Mn(PO4)6,2.2571000000000003,10.50685900,10.50957900,10.51429814,89.99071981,90.00000000,90.00000000
6346,BiH3Ru3(CO)9,2.2640000000000002,8.32366900,9.37787473,12.68639846,87.94481996,108.11970541,111.22675955
6347,RbB6H8O7,2.2329,8.31615132,8.31615132,13.48488735,75.11290769,75.11290769,69.20188307
6348,SrMgUH24C3O23,2.267,14.82618000,6.55127700,11.36695964,80.18725017,90.00000000,90.00000000
6349,DyP2H9O10,2.2485999999999997,7.24962300,9.21841500,13.65394800,90.00000000,90.00000000,90.00000000
6350,UH14(NO2)4,2.2383,6.50360600,11.11710200,12.44044900,90.00000000,90.00000000,90.00000000
6351,H12PtN6(ClO3)2,2.2619,6.65283500,6.75392257,7.18187027,100.62831487,114.58042060,96.56579351
6352,KFe2H(SeO3)4,2.2587,5.37103000,10.21099200,10.78569346,83.22554963,90.00000000,90.00000000
6353,Na3Ca18Fe(PO4)14,2.2318,10.49254700,10.49675764,13.87098146,90.04425688,112.15516380,119.86456957
6354,MnH5SO7,2.2405,7.27400800,7.20641600,12.18496392,61.31821422,90.00000000,90.00000000
6355,CoHRu(CO)6,2.2315,11.61091000,9.35032800,16.72791560,88.46554377,90.00000000,90.00000000
6356,ZrH8(NF3)2,2.2485,8.11205500,13.16853600,14.66715800,90.00000000,90.00000000,90.00000000
6357,Mn4Si3AsHO13,2.2309,20.24475600,6.77434200,9.70953964,51.84714732,90.00000000,90.00000000
6358,NbO2F,2.2316,5.42385181,5.42385181,5.66847926,60.34872799,60.34872799,61.60409246
6359,LiVF3,2.2318,5.61968400,3.26982900,6.70365029,75.84122078,90.00000000,90.00000000
6360,Li2CrPO4F,2.2362,5.33807500,5.48737517,7.76063967,107.67205385,108.25292722,94.87198103
6361,LiMnF4,2.2352,5.07609400,5.32783209,6.33041328,114.50359523,107.19315787,89.85070134
6362,Li3Ni4O4F3,2.2481999999999998,14.75759992,14.75759992,14.75759992,168.50461484,168.50461484,16.28443171
6363,CeZr7O16,2.2668000000000004,7.43217040,7.43217040,6.46268434,72.02095273,72.02095273,59.17338316
6364,HoIO,2.2587,11.20944765,11.20944765,11.20944744,20.11312618,20.11312618,20.11312420
6365,LiNi4O4F,2.247,10.78981425,10.78981425,10.78981425,164.20672403,164.20672403,22.40693818
6366,LiNi2O2F,2.2546999999999997,2.95995800,2.95995800,12.57712400,90.00000000,90.00000000,90.00000000
6367,Li3BiS3,2.2354,12.42914600,4.01150500,12.17459146,76.03382919,90.00000000,90.00000000
6368,LiNi5O5F,2.2394,2.96783800,2.96783800,12.74738900,90.00000000,90.00000000,90.00000000
6369,LiNiOF,2.2432999999999996,2.95617000,2.95617000,16.66515500,90.00000000,90.00000000,90.00000000
6370,Ta3O7F,2.2625,6.30989176,6.30989176,3.88686300,90.00000000,90.00000000,117.93540126
6371,Li3CuS2,2.2333999999999996,7.97154300,7.10664000,8.78640074,54.60762772,90.00000000,90.00000000
6372,Tm2Zr2O7,2.2484,7.42873232,7.42873232,7.42873232,60.00000000,60.00000000,60.00000000
6373,Li3Mn5OF11,2.2348999999999997,5.41302955,5.75387773,9.55952143,86.09320071,74.45431593,118.42310773
6374,Na3VBAsO7,2.2386999999999997,5.39896173,9.16232543,6.76265800,90.00011544,89.99999230,88.32925748
6375,Na2SnO3,2.2601999999999998,5.59408772,5.59408772,11.18420200,90.00000000,90.00000000,119.99999673
6376,Cs3YO3,2.2607,7.63350338,7.63350338,7.68571444,84.24016010,84.24016010,116.53602303
6377,Li2VGa3O8,2.2375,5.19017200,5.44754694,6.70815626,89.85625008,89.64854404,89.96638536
6378,LiVP4(H2O7)2,2.2428,5.23100587,7.18827812,8.07656011,81.72008064,81.16245427,69.43918909
6379,LiAlFeO3,2.2472,5.50282416,5.95823459,7.88432159,90.85271041,97.62529586,91.53888493
6380,Gd3InO6,2.2323999999999997,7.30682390,7.30682390,5.67917100,90.00000000,90.00000000,103.00282200
6381,NaBi5O8,2.2506999999999997,7.52857400,7.77174986,10.10668275,71.53933781,73.72507380,81.30096402
6382,LiMn2F9,2.2554,5.37359300,5.47568242,13.78874308,91.56767520,90.44927937,118.92243838
6383,Li4MnF8,2.2418,6.06180100,5.12984200,5.20322993,68.13600534,90.00000000,90.00000000
6384,Li2TiCr2O6,2.2466,5.13491892,10.21358800,5.13529872,89.99885737,119.99740560,90.00069591
6385,LiTa3O8,2.2390999999999996,3.91094800,8.98583900,17.16204200,90.00000000,90.00000000,90.00000000
6386,CeZr6O14,2.2333999999999996,3.68250400,5.29756400,25.72219700,90.00000000,90.00000000,90.00000000
6387,LiV(PO3)4,2.2566,8.47870000,7.28663200,7.77437895,86.70530444,90.00000000,90.00000000
6388,Li2Co2C2O7,2.234,6.24694400,8.91478800,10.60852576,67.07172826,90.00000000,90.00000000
6389,Li2V(Si2O5)3,2.2455,7.77735287,7.97770186,9.93530129,97.75585529,96.99760436,87.70858254
6390,Li2CoP2O7,2.2473,6.80434974,13.06648019,7.02162232,89.97025279,90.15326575,89.98244663
6391,Hg3(SF)2,2.2368,7.27489918,7.27489918,7.27489918,109.47122063,109.47122063,109.47122063
6392,LiV(PO3)4,2.2439,8.63728628,8.63728628,9.21905977,64.40358450,64.40358450,56.07588985
6393,Mn2PH2CO7,2.2337,6.59415300,10.17523100,10.34499045,63.51192578,90.00000000,90.00000000
6394,Li3Fe(PO4)2,2.241,10.36715100,8.21786600,8.31371751,74.95900952,90.00000000,90.00000000
6395,LiV2F5,2.2369,5.52449204,5.52449204,10.40709500,90.00000000,90.00000000,135.43162124
6396,NdTa3O9,2.2516,5.58032800,8.82627681,8.88446855,101.50670944,108.26454604,108.40072671
6397,Li3V(PO4)2,2.2363,8.72930200,8.76497376,9.19945460,86.82648936,87.20348096,67.36176937
6398,CsMnH4(OF2)2,2.258,6.72360906,12.05099934,8.72478312,83.92371200,112.65010360,90.00648224
6399,Li3Fe(PO4)2,2.2363999999999997,8.74233100,8.75059846,9.20292301,87.82702347,87.34893253,66.62851832
6400,Li3Fe8O3F13,2.2533999999999996,6.31150868,6.31150868,10.45076976,72.02306054,72.02306054,59.37014013
6401,LiV2F5,2.2601999999999998,6.00407303,6.00407303,7.75183571,68.95724209,68.95724209,52.47792079
6402,LiV2F7,2.2506,7.14814100,7.82071400,10.18393446,89.14064370,90.00000000,90.00000000
6403,Sb8O11F2,2.2470999999999997,4.24416100,10.51513800,18.17020856,88.98562154,90.00000000,90.00000000
6404,VF4,2.2615,7.44152100,7.67582900,10.77958300,90.00000000,90.00000000,90.00000000
6405,Sr2Bi2O5,2.2483000000000004,6.25519500,7.57612100,7.75618494,75.28639448,90.00000000,90.00000000
6406,V3OF11,2.2477,5.25931900,5.46193498,14.75146385,100.27448565,90.02948401,90.25235911
6407,Li5MnCr3O8,2.2617999999999996,8.68204600,8.68204600,8.39528000,90.00000000,90.00000000,90.00000000
6408,Li4Mn3OF8,2.2441999999999998,5.19491700,10.50760521,10.58325879,82.09637809,89.57520672,88.94204927
6409,V6O5F19,2.2666,5.30199300,5.47974112,14.91029052,79.58779003,89.74223463,88.71265191
6410,Li6VO5F,2.2591,5.55706900,5.61737252,10.72856644,90.18076103,89.91564696,119.56911243
6411,Li4V3OF11,2.2346,5.59978691,6.42474462,6.20308057,103.16998844,97.56357365,101.03191242
6412,LiV(OF)2,2.26,4.91592800,7.47747900,7.53684767,76.20786968,90.00000000,90.00000000
6413,Li2Co4OF8,2.2384,5.26568916,5.26568916,14.15323333,89.24878049,89.24878049,58.77353476
6414,Li2VSiO5,2.2562999999999995,4.50846000,9.10819800,9.25644000,90.00000000,90.00000000,90.00000000
6415,Li4V2SiGeO10,2.2327,4.55869400,9.20167400,9.20622000,90.00000000,90.00000000,90.00000000
6416,LiLa2Ti2CrO9,2.2611,5.55451600,5.47594500,23.41397227,89.98113549,90.00000000,90.00000000
6417,Li3CoPCO7,2.2364999999999995,6.39067300,9.44849500,9.84752637,63.68658569,90.00000000,90.00000000
6418,Sb3PO7,2.2365,9.59397922,9.59397922,12.50392840,76.19367092,76.19367092,90.17888976
6419,K6Na2MnH24(WO6)6,2.2515,9.82044825,9.82044825,9.82044783,84.39755036,84.39755036,84.39755408
6420,Gd2AsO5,2.2487000000000004,8.49649300,8.49649300,5.84241600,90.00000000,90.00000000,90.00000000
6421,LiVSiO4,2.2653000000000003,4.78417200,6.22459303,10.31094505,89.98957819,90.00323035,89.99991819
6422,Ba4Li4Ti19O44,2.2457000000000003,5.86255000,10.03204456,14.24870259,89.92202218,89.91305525,89.96806825
6423,Li3SbS3,2.2652,8.29570200,8.29570200,8.29570200,90.00000000,90.00000000,90.00000000
6424,LiVB2O5,2.262,9.63027200,5.80959900,6.94083152,73.33935572,90.00000000,90.00000000
6425,Li2TiS2O,2.2506,12.62791600,5.55007700,6.46800030,65.74852966,90.00000000,90.00000000
6426,Li2VSO4F3,2.238,10.04175300,7.09079400,7.88716502,89.11210550,90.00000000,90.00000000
6427,Ni4P2O9,2.2331999999999996,6.36086100,7.65103434,8.05260082,98.13741455,112.31435877,101.74027052
6428,Li2AlVO4,2.2398999999999996,4.99265600,6.44350600,11.07945900,90.00000000,90.00000000,90.00000000
6429,NaCrCSO7,2.2668999999999997,6.43428200,5.29649800,9.06159994,87.65369238,90.00000000,90.00000000
6430,Li2CrPO4F,2.2453,6.64179400,10.51695800,11.05740900,90.00000000,90.00000000,90.00000000
6431,Na3CoPCO7,2.2462999999999997,8.53573030,8.53510604,10.21430925,72.59144999,107.40967381,75.83533607
6432,Li2VPCO7,2.2504,8.41449722,5.08778557,6.45079401,90.00370958,89.99633166,83.89224038
6433,Gd3NbO7,2.2513,7.56820900,7.58103200,10.76848700,90.00000000,90.00000000,90.00000000
6434,LiNbCoO4,2.2662000000000004,6.09508200,6.09508200,8.66136000,90.00000000,90.00000000,90.00000000
6435,Li3FeSiO5,2.2421999999999995,5.02564300,5.79972214,6.51497294,104.53543208,97.86718993,106.62286451
6436,Li2Cr(BO2)5,2.2386,15.61630400,7.13318900,7.14834971,89.81638644,90.00000000,90.00000000
6437,Li3V(BO3)2,2.2652,8.88594700,5.20277700,11.17189476,63.19441751,90.00000000,90.00000000
6438,Li2Ti7Nb6O30,2.2459000000000002,5.20402624,5.20402624,24.02098800,90.00000000,90.00000000,120.00000311
6439,Li4V3P4O15,2.2443,6.65454900,10.68133100,17.44770900,90.00000000,90.00000000,90.00000000
6440,LiV(Si3O7)2,2.246,12.77047110,12.77047110,12.77047110,146.41641412,107.36833395,82.43833868
6441,Li2NbCr3O8,2.2504,8.53033000,8.53033000,8.53033000,90.00000000,90.00000000,90.00000000
6442,Li3Fe2(PO4)3,2.2652,8.60310041,8.60310041,8.54441972,61.71496472,61.71496472,61.72075628
6443,Mn2Fe3Sb(PO4)6,2.248,8.70139292,8.70139292,8.70139341,59.81437639,59.81437639,59.81437627
6444,Li4TiMn2Ni3(PO4)6,2.258,8.50646900,8.58803530,8.59847189,61.75785907,62.09886416,61.98712640
6445,LiNbCoO4,2.2403000000000004,6.16923600,6.16989100,8.49593100,90.00026742,90.00067828,90.00232171
6446,Na4Ti11O24,2.2516,10.50339217,10.50339217,6.15520938,73.95641705,73.95641705,119.97407326
6447,Ag2H16O9,2.2358,12.66252400,6.65027400,11.92191015,75.86049997,90.00000000,90.00000000
6448,LiMnB3(HO3)3,2.2626,9.11765700,11.64231400,14.23762200,90.00000000,90.00000000,90.00000000
6449,La2HgO4,2.2668000000000004,7.36590686,7.36590686,10.47162329,60.87353627,60.87353627,31.07937261
6450,K2LiNb6(PO8)3,2.2356000000000003,8.53040000,10.49637232,13.45962166,90.04285931,90.01751274,113.37710813
6451,Gd3NbO7,2.2376,6.55239857,6.55239857,7.60520200,90.00000000,90.00000000,110.71413354
6452,Rb3PdF5,2.2476000000000003,7.61217900,7.61217900,6.54584900,90.00000000,90.00000000,90.00000000
6453,CsRb2PdF5,2.2437,7.74087000,7.74087000,6.54181100,90.00000000,90.00000000,90.00000000
6454,ThNF,2.2577999999999996,7.21574381,7.21574381,7.21574322,32.31845184,32.31845184,32.31845675
6455,LiVP3HO10,2.2504,4.98739700,8.69685800,11.82642409,53.83747255,90.00000000,90.00000000
6456,TeH14C3S3(N3F2)2,2.2379000000000002,20.94692300,6.23826100,11.53130583,84.21325502,90.00000000,90.00000000
6457,NaCaFe3(PO4)4,2.2436,8.81680286,9.53494948,29.60666731,90.00000000,90.00000000,90.00000000
6458,BaNd2PdO5,2.2670999999999997,6.81248700,6.81248700,5.98297600,90.00000000,90.00000000,90.00000000
6459,Li8PtO6,2.2493999999999996,5.96489664,5.96489664,5.96489608,54.77214982,54.77214982,54.77214981
6460,LiCoPO4,2.2356,7.52190300,8.49533000,16.88228373,60.10124674,90.00000000,90.00000000
6461,BiTeO4,2.2396000000000003,7.06812745,7.06812745,10.45194296,66.92772826,66.92772826,47.16644039
6462,Li2SnP2O7,2.2422,8.34480437,8.34480437,9.46399021,65.07433450,65.07433450,36.56661075
6463,Ca4SnS6,2.2461,7.67673417,7.67673417,13.50416230,70.45471271,70.45471271,58.65871955
6464,TiMnH12(OF)6,2.2542,6.60166283,6.60062360,6.60172327,97.57027160,97.56788778,97.56971108
6465,CsPrS2,2.2590000000000003,8.47206541,8.47206541,8.47206577,29.31564438,29.31564438,29.31564687
6466,CsNdS2,2.2505000000000006,8.45972350,8.45972350,8.45972325,29.13150980,29.13150980,29.13151435
6467,CsSmS2,2.2409,8.43992203,8.43992203,8.43992225,28.81218991,28.81218991,28.81219197
6468,CsTbS2,2.2489000000000003,8.40948752,8.40948752,8.40948750,28.40653000,28.40653000,28.40653042
6469,CsDyS2,2.2541,8.39993147,8.39993147,8.39993179,28.30567085,28.30567085,28.30566837
6470,CsAu3Se2,2.2403000000000004,6.46751896,6.46751896,5.74384700,90.00000000,90.00000000,120.00000986
6471,Na3AlTe3,2.2355,7.83541300,8.12863300,16.32001401,60.42501125,90.00000000,90.00000000
6472,Na3Ni2SbO6,2.2542999999999997,5.36447805,9.29358157,5.68393855,105.76609369,99.02739426,89.97828326
6473,CsTbS2,2.2586999999999997,4.11950253,4.11950253,16.08495800,90.00000000,90.00000000,120.00000858
6474,SrTa2H2O7,2.2432999999999996,9.90515426,9.90515426,9.90515426,156.79390391,156.79390391,33.05085324
6475,H6C6NO,2.2348999999999997,9.98666200,14.89876801,19.86741760,90.01390902,90.00201297,90.00164595
6476,InSnBr3,2.234,5.93279800,5.95962600,5.98572979,85.06332740,87.21602851,88.38034629
6477,NaNdS2,2.2466,7.09953931,7.09953931,7.09953868,33.86848246,33.86848246,33.86848431
6478,CaCr3(P2O7)2,2.2478999999999996,7.99524400,7.55017900,9.56205377,69.96554375,90.00000000,90.00000000
6479,MgCr2(PO4)2,2.2494,9.22562490,9.22562490,16.48756714,61.10839695,61.10839695,31.81149475
6480,CaP2W2O9,2.2491999999999996,6.77747400,7.44016400,15.14450300,90.00000000,90.00000000,90.00000000
6481,MgSb3P3O13,2.2504999999999997,6.98829600,8.22179100,11.07477822,77.74632410,90.00000000,90.00000000
6482,CaSb3P3O13,2.2608,6.97776500,8.20479600,11.16964265,77.87818268,90.00000000,90.00000000
6483,YMoO3,2.2622,5.51937500,5.86300700,8.05104500,90.00000000,90.00000000,90.00000000
6484,Mg3Sn2O7,2.2473,9.68485588,9.68485588,5.47976300,90.00000000,90.00000000,147.48142266
6485,Ti2Zn3O7,2.2584000000000004,9.54689300,9.54689300,5.24991600,90.00000000,90.00000000,148.05375606
6486,CaTa2Bi2O9,2.2347,3.93784200,3.95475735,13.05467051,94.28859759,96.40472039,90.02396284
6487,YNiF5,2.246,5.73212414,5.73212414,5.73212414,137.30766005,105.88113921,89.50450744
6488,TiZnO3,2.2459,5.14579200,5.28354800,7.56957500,90.00000000,90.00000000,90.00000000
6489,Mg2BiWO6,2.2531999999999996,5.35508400,5.70620905,5.75101818,70.70399716,65.84844147,64.34637367
6490,YW3O8,2.2330000000000005,5.23113400,5.79978945,6.27334458,113.21133505,111.14779033,86.20038285
6491,Mo(WO4)2,2.2375,5.14572700,5.42548049,6.93686518,109.09197888,92.80198247,104.33006652
6492,Te(WO4)2,2.2318,5.74853500,5.27901500,10.91416649,68.30389662,90.00000000,90.00000000
6493,TiAs2O7,2.2624,9.19430200,7.17855200,9.59153261,74.54936694,90.00000000,90.00000000
6494,MgVAs2O7,2.2409000000000003,8.23229200,7.84374200,10.82201796,58.50699058,90.00000000,90.00000000
6495,Ca2Nb2SnO8,2.2348000000000003,10.68302183,10.68302183,5.51274364,88.08861415,88.08861415,37.59066952
6496,Ge2WO6,2.2424999999999997,6.83448129,6.83448129,5.69807530,77.00425399,77.00425399,84.17143597
6497,ZnGe2WO6,2.2573,8.01153414,8.01153414,4.99217121,89.88017681,89.88017681,69.67655133
6498,NiP2WO9,2.2622,6.43422300,8.03308000,14.04677600,90.00000000,90.00000000,90.00000000
6499,CaSb2P2O9,2.2603,7.00175800,7.14889300,15.79085900,90.00000000,90.00000000,90.00000000
6500,Li48P16S61,2.2955,16.23034600,12.48874200,13.08833877,89.84359180,90.00000000,90.00000000
6501,Cl2,2.2818,4.38922771,4.38922771,8.60152500,90.00000000,90.00000000,121.88432303
6502,HfZnN2,2.2797,3.26518375,3.26518375,5.32148800,90.00000000,90.00000000,119.99999488
6503,Na2ZnS2,2.3058,7.08512000,6.87895400,9.01732132,86.88371009,90.00000000,90.00000000
6504,NbTl3Se4,2.3068999999999997,6.99435025,6.99435025,6.99435025,109.47122063,109.47122063,109.47122063
6505,Ba(NbN2)2,2.2735000000000003,11.25582300,11.25582300,11.25582300,90.00000000,90.00000000,90.00000000
6506,Cs2CN2,2.2801,5.86694000,6.08435265,12.98505597,82.94804199,84.61588321,73.02390306
6507,NaNbN2,2.2984,5.65186500,11.33701300,15.95974900,90.00000000,90.00000000,90.00000000
6508,Mg30CdFeO32,2.2896,8.56464300,8.56464300,8.57429700,90.00000000,90.00000000,90.00000000
6509,RbLiMg30O31,2.2727,8.55647700,8.61382000,8.69157100,90.00000000,90.00000000,90.00000000
6510,RbSbO2,2.2765999999999997,6.20979984,6.20979984,5.67690963,68.68928354,68.68928354,98.35085067
6511,LiNdTiO4,2.2826999999999997,3.74738300,3.74738300,12.24777800,90.00000000,90.00000000,90.00000000
6512,NaFeF3,2.2672,5.41972196,5.41972196,7.51824900,90.00000000,90.00000000,145.82370908
6513,CsHoS2,2.2786,4.09047589,4.09047589,16.07669300,90.00000000,90.00000000,119.99999819
6514,CsTmS2,2.2814,4.04941589,4.04941589,16.05115900,90.00000000,90.00000000,119.99999821
6515,Ba2SrUO6,2.2733,6.27733251,6.27733251,6.27733272,61.23889599,61.23889599,61.23889496
6516,CsLuS2,2.3035,4.03038269,4.03038269,16.05792400,90.00000000,90.00000000,120.00001139
6517,ZnMoO4,2.3007999999999997,5.84547000,4.74968600,4.96663203,89.04214400,90.00000000,90.00000000
6518,Ba3SnS4,2.3072999999999997,6.33257700,6.33257700,6.33257700,90.00000000,90.00000000,90.00000000
6519,KSnBr3,2.2706,4.51932900,9.65116500,16.28049300,90.00000000,90.00000000,90.00000000
6520,TeO2,2.2843,4.00832400,5.47440600,7.81101280,88.23453527,90.00000000,90.00000000
6521,HgH4C2(N2Cl)2,2.2824,4.13845400,6.91505876,7.17562367,80.67049603,85.84775394,85.23830697
6522,BaO2,2.2907,4.43247974,4.43247974,4.43247974,128.29045629,128.29045629,76.15497071
6523,KRb2ScI6,2.3072,8.84095467,8.84095467,8.84095467,60.00000000,60.00000000,60.00000000
6524,KNa2RhF6,2.2856,6.28763310,6.28763310,6.28763310,60.00000000,60.00000000,60.00000000
6525,Li3IrF6,2.2923,5.60583932,5.60583932,5.60583932,60.00000000,60.00000000,60.00000000
6526,K2TlIrF6,2.296,6.54634791,6.54634791,6.54634791,60.00000000,60.00000000,60.00000000
6527,K2YAuCl6,2.2893999999999997,7.59772801,7.59772801,7.59772801,60.00000000,60.00000000,60.00000000
6528,K2SmAuCl6,2.3004,7.67002544,7.67002544,7.67002544,60.00000000,60.00000000,60.00000000
6529,Cs2RbAsI6,2.3035,9.00667646,9.00667646,9.00667646,60.00000000,60.00000000,60.00000000
6530,K2NdCuBr6,2.2959,7.85285921,7.85285921,7.85285921,60.00000000,60.00000000,60.00000000
6531,Cs2SmAuCl6,2.2742999999999998,7.75827237,7.75827237,7.75827237,60.00000000,60.00000000,60.00000000
6532,Na2TlAsF6,2.2771999999999997,6.56814236,6.56814236,6.56814236,60.00000000,60.00000000,60.00000000
6533,Cs2NdCuBr6,2.2676,7.94165768,7.94165768,7.94165768,60.00000000,60.00000000,60.00000000
6534,Cs2LaAuCl6,2.3005,7.85447141,7.85447141,7.85447141,60.00000000,60.00000000,60.00000000
6535,Rb2PrCuBr6,2.3072,7.91488238,7.91488238,7.91488238,60.00000000,60.00000000,60.00000000
6536,Rb2YAuCl6,2.2798000000000003,7.63032139,7.63032139,7.63032139,60.00000000,60.00000000,60.00000000
6537,Rb2SmAuCl6,2.3032000000000004,7.70197677,7.70197677,7.70197677,60.00000000,60.00000000,60.00000000
6538,Na2LiIrF6,2.2678000000000003,5.66366227,5.66366227,5.66366227,60.00000000,60.00000000,60.00000000
6539,Rb2TlIrF6,2.2788,6.60019126,6.60019126,6.60019126,60.00000000,60.00000000,60.00000000
6540,MgZn3S4,2.2753000000000005,5.50967200,5.50967200,5.50967200,90.00000000,90.00000000,90.00000000
6541,NaNi2H3(SO5)2,2.3014,6.51456394,6.51456394,7.05738133,75.44106068,75.44106068,55.78581534
6542,NaCo2H3(SeO5)2,2.2845000000000004,6.52333704,7.74590543,9.04156404,99.11638926,90.01298656,114.90748703
6543,LiMnBO3,2.3068999999999997,9.73373100,3.25803300,9.31608276,70.57294190,90.00000000,90.00000000
6544,BaO,2.2831,3.92531500,6.83559700,52.66088300,90.00000000,90.00000000,90.00000000
6545,AlInO3,2.277100000000001,5.11989200,5.29657500,7.48331900,90.00000000,90.00000000,90.00000000