,pretty_formula,bandgap,cell_length_a,cell_lentgh_b,cell_lentgh_c,cell_angle_alpha,cell_angle_beta,cell_angle_gamma
9642,LiAlSi2H2O7,2.5092000000000003,6.91639668,6.95942676,7.65832159,62.49676552,89.71421200,68.81516039
9643,Na2Al2Si3(HO3)4,2.5010000000000003,9.20650816,8.17791594,8.43279011,95.82545096,73.83552719,78.55550494
9644,Cr2NiO4,2.5281,5.94522398,6.01420550,5.98732972,59.99881371,90.10557082,119.69490268
9645,Co(HO)2,2.5099,5.57369383,6.39999867,6.47702074,111.98212035,121.05766696,91.25934106
9646,Mg2CoWO6,2.5275000000000003,5.21658557,5.56906349,9.00897590,74.43495374,89.81224474,62.26282173
9647,Ca2FeWO6,2.5066,5.50653635,5.65190103,7.92046041,90.00542876,89.86111227,89.99005863
9648,Ba2FeWO6,2.5062,5.84096198,10.11454166,5.86586859,73.70473486,119.59379792,106.65842587
9649,Li2CrO2,2.5092999999999996,2.96326838,5.48970077,12.58565214,78.26534920,89.99964837,90.00118262
9650,CaCr2O4,2.5239,6.00958885,11.77489025,6.02764515,104.83032443,120.09987964,75.26290798
9651,LiCoPO4,2.5104,5.10143045,8.34558949,8.85247817,101.28261990,90.47888161,73.06372110
9652,Li2PtF6,2.5092,4.73547600,4.73547600,9.32613100,90.00000000,90.00000000,90.00000000
9653,K3GeS3,2.52,7.67407495,7.67407495,8.32491670,75.09351617,75.09351617,110.06221385
9654,Sr2Ga2S5,2.5153999999999996,11.30702300,12.14725800,12.65366100,90.00000000,90.00000000,90.00000000
9655,K2TaAgS4,2.5157999999999996,13.38673219,11.93301532,7.39871058,84.17101440,62.47348970,33.35549590
9656,CaMoF6,2.5018000000000002,6.01033465,6.01033465,6.01033470,56.51442414,56.51442414,56.51442395
9657,Na3VPCO7,2.5202999999999998,8.65396197,8.65331306,8.91588626,90.93666856,89.06392541,76.90727805
9658,La4Si2S3O7,2.4946,11.26289293,11.26289293,11.26289293,114.37100328,114.37100328,100.06195800
9659,MgCoP2O7,2.4987,5.62311061,10.30467321,9.15107356,81.49708998,100.09611345,76.90871503
9660,Sm2Mo4O15,2.5309,9.52755000,11.14245519,11.70021955,104.51898339,109.21022093,108.92047916
9661,Na5Ti2Si2PO13,2.5273,5.46057100,7.15861649,14.69889168,100.01235782,96.56017829,90.56616250
9662,Cs2Mo3SeO12,2.4941000000000004,7.41850868,7.41850868,12.96140552,90.00000000,90.00000000,119.99999996
9663,SrV4O9,2.5175,8.46943600,8.46943600,5.55850700,90.00000000,90.00000000,90.00000000
9664,CaV4O9,2.5131000000000006,8.42453100,8.42453100,5.19846900,90.00000000,90.00000000,90.00000000
9665,CdMoO4,2.4958,6.80978995,6.80978995,6.80978995,134.60842854,134.60842854,66.13922573
9666,Na3Co(NO2)6,2.531,6.79897123,6.79897123,6.79897123,71.51115622,71.51115623,71.51115627
9667,CsBrF,2.5273000000000003,10.54838836,10.54838836,10.54838836,155.92765279,155.92765279,34.30366067
9668,La3Si2S8I,2.5208000000000004,9.03719443,9.03719443,10.98758547,82.89020849,82.89020849,52.41993773
9669,GeBi2O5,2.5151000000000003,8.40834030,8.40834030,5.48159900,90.00000000,90.00000000,141.02636477
9670,RbIO4,2.5318,7.93252208,7.93252208,7.93252208,135.14229458,135.14229458,65.30918610
9671,Bi4Br2O5,2.5139,5.74144600,11.10364400,14.80672777,81.47133835,90.00000000,90.00000000
9672,BaLiH3,2.5084,4.01875800,4.01875800,4.01875800,90.00000000,90.00000000,90.00000000
9673,InH36C12S6(IO2)3,2.4953,10.00923766,10.00923766,10.00923811,69.95420969,69.95420969,69.95420848
9674,CdCoH18N6Cl5,2.5006,16.04982289,16.04982286,16.04982318,60.00000149,60.00000154,60.00000220
9675,BaVP2(H2O5)2,2.5195,6.49371600,10.98521900,11.56911505,77.90288841,90.00000000,90.00000000
9676,La2MoO6,2.5174,6.22355100,5.64176200,9.37118887,58.16126922,90.00000000,90.00000000
9677,Li2Te,2.5171000000000006,4.60644147,4.60644147,4.60644147,60.00000000,60.00000000,60.00000000
9678,LiFeP2O7,2.5188000000000006,5.27411081,5.27411081,4.56605105,81.42843006,81.42843006,102.43135860
9679,LiV(PO3)3,2.4931,9.79046000,9.48129452,9.46943914,108.54197618,104.37136781,109.92598715
9680,LiFeP2O7,2.5133,5.10708300,8.60841500,12.58053951,78.15030836,90.00000000,90.00000000
9681,LiCrP2O7,2.508,8.24946500,6.68331600,9.17411490,74.77509933,90.00000000,90.00000000
9682,LiCrP2O7,2.4956,8.26300700,6.95884800,8.78623573,68.47919067,90.00000000,90.00000000
9683,Al2Hg3Cl8,2.4938,15.91830300,7.30031100,14.79394167,81.79237804,90.00000000,90.00000000
9684,B7H10,2.5117,9.17887500,10.27809500,13.54942300,90.00000000,90.00000000,90.00000000
9685,AlCuCl4,2.5145,5.55590200,5.55590200,10.08406000,90.00000000,90.00000000,90.00000000
9686,ThNCl,2.5008999999999997,4.09562400,4.09562400,7.04567400,90.00000000,90.00000000,90.00000000
9687,LiGa5O8,2.5222999999999995,8.32254200,8.32254200,8.32254200,90.00000000,90.00000000,90.00000000
9688,LiBiO2,2.5090000000000003,9.98018937,9.98018937,9.98018937,152.39855850,148.90691470,42.05335983
9689,LaHO,2.4939999999999998,8.08270800,8.08270800,5.71546000,90.00000000,90.00000000,90.00000000
9690,Li3BiO3,2.4933,9.15823100,9.37687031,9.86621960,114.16401994,107.58130480,89.17615848
9691,Ba(AuF4)2,2.5159,8.08425714,8.08425714,8.08425714,103.45257019,103.45257019,122.32487704
9692,MoAs2O7,2.5302,4.68137000,8.10499800,17.43498973,71.69487804,90.00000000,90.00000000
9693,Ca2Bi2O5,2.494,10.23607500,10.28365365,10.66295723,107.27285899,116.96257831,93.72757626
9694,TeCF3,2.5076,11.79486300,7.03460800,10.44832753,79.14750964,90.00000000,90.00000000
9695,Na2V3O7,2.5094000000000003,11.10469031,11.10469031,9.69129600,90.00000000,90.00000000,120.00000185
9696,AsKrF7,2.5145,10.46495300,5.38272100,11.09435974,84.44240331,90.00000000,90.00000000
9697,Cs3BS3,2.5301,6.74323900,10.86465500,13.84288770,77.13496175,90.00000000,90.00000000
9698,MgGeO3,2.4990000000000006,4.95123444,4.95123444,7.02560600,90.00000000,90.00000000,146.52608502
9699,Ba3(BN2)2,2.5259,4.29993000,11.16357800,14.91346400,90.00000000,90.00000000,90.00000000
9700,SrTe3O8,2.5217,6.96432200,6.96432200,6.85824100,90.00000000,90.00000000,90.00000000
9701,RbAuF4,2.4939,7.51701938,7.51701938,7.51701938,129.55368433,129.55368433,74.12128869
9702,KNO2,2.5008999999999997,4.67279140,4.67279140,4.27491309,66.33486346,66.33486346,75.69475784
9703,NdTiCdSbO7,2.5155000000000003,7.36414200,7.36414200,10.46723700,90.00000000,90.00000000,90.00000000
9704,MoPO5,2.5038,6.28262800,6.28262800,4.63142600,90.00000000,90.00000000,90.00000000
9705,TiH2SO6,2.5174999999999996,5.15117700,8.78034400,10.01118900,90.00000000,90.00000000,90.00000000
9706,ThPbI6,2.5035000000000003,7.89686774,7.89686774,14.28401100,90.00000000,90.00000000,119.99999784
9707,Co2PHO5,2.5278000000000005,6.03704900,8.16475800,8.40594400,90.00000000,90.00000000,90.00000000
9708,CoH20S2(NO7)2,2.5020000000000002,12.63487800,6.31082800,9.27937983,72.41656326,90.00000000,90.00000000
9709,Dy2TiO5,2.5179,7.25505300,7.49984704,17.73038783,91.74202209,89.79641496,118.85743339
9710,Sb24(Cl7F17)5,2.5007,11.07704651,11.80250892,24.90453884,96.24879511,89.89707638,89.90122313
9711,LiMo(PO4)2,2.4920999999999998,12.99557200,4.96715400,10.90898710,72.35794895,90.00000000,90.00000000
9712,LiFe(PO3)4,2.502,10.46989997,10.46989997,5.22408163,82.11169361,82.11169361,71.07964964
9713,CsPbI3,2.5222,4.87871400,10.81190900,18.21317400,90.00000000,90.00000000,90.00000000
9714,Ti(TlS)4,2.5098999999999996,8.45291600,8.56161800,15.84343105,74.32914294,90.00000000,90.00000000
9715,Zn3As2(HO)16,2.5151,8.74754261,8.74754261,4.96334995,83.54755416,83.54755416,98.62528678
9716,KFeBP2HO9,2.5100999999999996,5.16969200,8.10998619,8.35030346,85.88997058,80.83606264,86.19636361
9717,V2Ni(HO2)4,2.4964,5.64973800,10.78896400,11.96045500,90.00000000,90.00000000,90.00000000
9718,HI3O8,2.5279,7.97616200,7.73598900,13.81084519,57.06557016,90.00000000,90.00000000
9719,KNO2,2.5007,4.27756245,4.27756245,4.19042131,76.67814978,76.67814978,85.54657413
9720,K4CO4,2.5252,6.34745030,6.34745030,6.34745030,128.35060227,128.35060227,76.05775079
9721,Na2Mn(PO3)5,2.5146,13.74256900,5.29794800,8.91649682,76.88462509,90.00000000,90.00000000
9722,Bi7Mo2(AsO8)3,2.5321,5.41023800,16.34719300,24.07851000,90.00000000,90.00000000,90.00000000
9723,CaGeO3,2.5120999999999998,10.93251273,10.93251273,10.93251273,109.13940723,109.13940723,110.13690530
9724,CaGe2O5,2.4968000000000004,5.50424100,5.60274422,6.97046455,105.12624729,102.27663204,106.60630835
9725,Ba2MnNiClF7,2.5237,5.91770400,7.84473900,9.06925783,73.91406505,90.00000000,90.00000000
9726,NbBiO4,2.5202999999999998,5.58110900,7.77786598,8.05123998,101.45622771,90.15137295,92.78158424
9727,Ta9Pb12O20F29,2.4922999999999997,16.63961044,16.63961044,16.63961044,90.79881294,90.79881294,166.43808121
9728,Ba2CoF6,2.5109999999999997,8.99130766,8.99130766,8.99130766,153.54123193,153.54123193,37.76675989
9729,Ga2S5N5Cl7,2.5008999999999997,13.69674100,8.81212600,18.91516592,66.99448841,90.00000000,90.00000000
9730,Nd6Si4S17,2.4981000000000004,8.99597300,10.01191964,14.30362361,82.01086011,86.99543454,89.22087990
9731,Gd2Mo4O15,2.5281,9.47338400,11.07848418,11.63770371,104.49261331,109.07548326,108.99989800
9732,Si(PbO2)2,2.5170000000000003,7.32009949,7.32009949,19.80596961,83.95211614,83.95211614,64.31129015
9733,AlSCl7,2.5238,6.45250600,6.55440800,13.60725845,77.13139374,90.00000000,90.00000000
9734,Zn8B3H3O14,2.4923,7.62428957,7.62428957,7.62428996,65.40775430,65.40775430,65.40775807
9735,Rb2U(SiO3)4,2.5048,6.91623100,8.49451493,11.37573266,107.00343618,88.78800690,102.73599185
9736,CdHgC4(SN)4,2.5154,8.59142143,8.59142143,8.59142143,93.98435733,93.98435733,149.43262695
9737,Ba5Re3ClO15,2.5312,11.12461371,11.12461371,7.93773300,90.00000000,90.00000000,119.99999829
9738,CsSmGeS4,2.5112000000000005,6.59068300,6.86142500,18.08606300,90.00000000,90.00000000,90.00000000
9739,MgV2PbO7,2.5098000000000003,15.27936000,6.96238400,11.70902076,82.07214155,90.00000000,90.00000000
9740,Na2V3O7,2.4932,11.09423495,11.09423495,9.70143000,90.00000000,90.00000000,119.99999374
9741,Ge3Pb5O11,2.501,10.43567058,10.43567058,10.89919500,90.00000000,90.00000000,120.00000370
9742,S,2.5163,8.20296900,10.48392700,10.50451074,81.41405350,90.00000000,90.00000000
9743,Sm6Si4S17,2.5080999999999998,8.93801800,9.89135247,14.17923087,82.03676331,87.33921562,88.98518570
9744,Hg2SeO3,2.5133,9.11570992,9.11570992,9.11570992,126.68579904,106.48530665,96.82309147
9745,SbIrC2(OF3)2,2.4943,13.23311300,13.23311300,9.73898300,90.00000000,90.00000000,90.00000000
9746,P2Pb(XeF6)3,2.5014000000000003,8.80904319,8.80904319,11.24166331,83.69426777,83.69426777,89.13692192
9747,CsSiBiS4,2.5012,7.12732900,9.49751900,13.10579329,71.91188472,90.00000000,90.00000000
9748,BaVSi2O7,2.512,7.71497632,7.71497521,10.13386271,89.99997755,90.00000890,82.10749011
9749,Ba2Mn(AsO4)2,2.5236,9.34074100,5.60942300,17.77146551,72.03574629,90.00000000,90.00000000
9750,RbGa3S5,2.5213,12.92120900,7.26111900,10.52263951,76.57441661,90.00000000,90.00000000
9751,GdMoClO4,2.5046,6.39144895,6.39144895,6.98552651,76.12740122,76.12740122,71.00706290
9752,Rb2Cr5F17,2.5291,13.63594069,13.63594069,14.93540100,90.00000000,90.00000000,147.78444077
9753,Cr2B(PO4)3,2.4924,8.08600634,8.08600634,7.52777800,90.00000000,90.00000000,120.00000276
9754,Li5SbS3I2,2.5081999999999995,7.61569000,10.48105800,13.58059300,90.00000000,90.00000000,90.00000000
9755,AgBTe4C(OF4)5,2.5124,16.62941600,10.24001400,14.78908995,57.11219361,90.00000000,90.00000000
9756,LiTa3O8,2.4985,7.73683100,9.04683400,16.86539300,90.00000000,90.00000000,90.00000000
9757,Pr6Si4S17,2.5225000000000004,9.04108700,10.07546527,14.38075880,81.99255545,86.88386164,89.31584970
9758,K2SbPO6,2.5161000000000002,5.98601000,9.57660000,11.25444100,90.00000000,90.00000000,90.00000000
9759,LiUP(H4O5)2,2.5235,6.98057400,6.98057400,9.26482900,90.00000000,90.00000000,90.00000000
9760,Na2Sn2C3(O2F)3,2.5195,6.11776800,8.93046759,9.36281496,70.46291339,82.14787688,82.83503800
9761,K2Mo2P2O11,2.5088,9.10446900,9.44775000,11.12085200,90.00000000,90.00000000,90.00000000
9762,Cs3Sb2Cl9,2.5094000000000003,7.80929711,7.80929711,9.57375000,90.00000000,90.00000000,120.00000938
9763,Ca3(AlN2)2,2.5229,6.74038474,6.74038474,5.53712348,88.39479986,88.39479986,75.89123670
9764,SnICl,2.5128000000000004,4.43198500,9.01465300,10.51022400,90.00000000,90.00000000,90.00000000
9765,Cs7Co4F15,2.4982,11.13873500,8.00008700,11.79552615,87.61180590,90.00000000,90.00000000
9766,Cs2LiNbS4,2.4983,7.02765400,7.45761786,9.96458384,97.01506632,92.57388994,91.32792326
9767,Cs3Fe4(PO4)5,2.4999,9.99154801,14.17832635,14.45948553,90.00000000,90.00000000,90.00000000
9768,Si3N4,2.5252999999999997,12.52608181,12.52608181,8.09143100,90.00000000,90.00000000,119.99999899
9769,Cs2PtC2(OF)4,2.493,8.11804033,8.11804033,9.91670305,89.69599511,89.69599511,46.25109912
9770,Cu2H10C6S3N4,2.5119999999999996,30.63518000,5.79854300,7.63740786,67.73850528,90.00000000,90.00000000
9771,Nb2O5,2.4977,6.95002624,6.95002624,5.68564406,77.05600349,77.05600349,42.00314978
9772,Mo8P9H56N12ClO56,2.4999000000000002,9.82178600,9.82178600,14.84188800,90.00000000,90.00000000,90.00000000
9773,VSnH9(CO)3,2.5258000000000003,11.70548100,11.43066800,13.66133301,66.37151754,90.00000000,90.00000000
9774,CsCu3As8H24C8(IO2)4,2.5000999999999998,8.38847000,8.58192077,25.82384040,94.84572628,92.39726592,95.96516014
9775,Os3C9S2O9,2.5157000000000003,6.80263300,9.59863009,13.70756960,82.66262956,84.63063673,69.56613541
9776,NaHgCl3,2.5237,4.19756300,7.49083200,18.24062500,90.00000000,90.00000000,90.00000000
9777,BiBr3,2.5206,10.24432700,7.29069200,8.26833041,71.77856245,90.00000000,90.00000000
9778,PS,2.5181999999999998,7.26882289,7.26882289,9.62003451,80.47967954,80.47967954,83.98574798
9779,TeMoCl7O,2.4921,13.07034300,7.57448300,12.09657746,85.48272229,90.00000000,90.00000000
9780,CsCdCl3,2.4920999999999998,7.57508967,7.57508967,18.87334000,90.00000000,90.00000000,119.99999716
9781,SnC2(SN)2,2.5023,5.01525400,5.74034350,10.40709334,100.51148628,96.64627578,93.00601331
9782,VSb2O5,2.5139,4.94916200,5.62659300,18.03760000,90.00000000,90.00000000,90.00000000
9783,NaMo(PO4)2,2.4968,5.31231900,10.83118200,11.77758500,90.00000000,90.00000000,90.00000000
9784,NaNb3O8,2.5211,3.82816500,8.93745800,10.32927400,90.00000000,90.00000000,90.00000000
9785,Ta2O5,2.5213999999999994,4.02560050,4.02560050,5.82716438,68.46957435,68.46957435,80.63093520
9786,Zn(HO)2,2.5046,3.22582597,3.22582597,4.58002886,88.60649999,88.60649999,62.06249738
9787,NbHO3,2.5186,6.75610400,6.79088268,6.76769423,109.85035248,109.30557642,108.82538047
9788,NbHO3,2.5130000000000003,6.80160333,6.74508159,6.77872697,109.80689346,108.58307595,109.98730632
9789,Mo(HO2)2,2.507,3.76432700,6.42581882,7.70722819,67.62006153,80.11105385,75.39841542
9790,RbCdH2I3O,2.4941,7.55004241,7.55004241,8.98693949,89.63033722,89.63033722,85.42988186
9791,FeC3SO3,2.5069999999999997,6.74614100,7.91297879,11.62983850,83.41804817,76.15905983,78.17913154
9792,RbAuC2(SN)2,2.5072,7.40940440,7.40940440,18.05169928,73.22321541,73.22321541,50.38955752
9793,CrBi12Mo4PbO34,2.5148000000000006,5.89318900,11.82904000,25.25665472,78.12040760,90.00000000,90.00000000
9794,H3CSClO,2.521,8.53206900,5.41010200,10.44190262,58.84172369,90.00000000,90.00000000
9795,V2Ni(PO5)2,2.5213,7.85514400,7.73883700,8.74198971,58.44429298,90.00000000,90.00000000
9796,Co2SnC8(ClO4)2,2.5075000000000003,11.53522500,11.80953900,12.81134229,71.67119680,90.00000000,90.00000000
9797,K3HgN5O11,2.4973,9.66286200,10.88762200,12.59372700,90.00000000,90.00000000,90.00000000
9798,C2Se(SN)2,2.5082,4.79430700,9.99159600,13.66814200,90.00000000,90.00000000,90.00000000
9799,SbRu2C6Cl7O6,2.4952,12.11108100,9.39527300,17.09306751,79.77938877,90.00000000,90.00000000
9800,WO3,2.5025,7.30109800,7.44900605,10.24319145,90.13587686,93.00423330,93.50203487
9801,NaLaS2,2.5115000000000003,7.37932201,7.37932201,7.37932201,133.71886674,133.71886674,67.52744320
9802,Sm2Zr2O7,2.5237,3.65463700,7.61800400,10.87117300,90.00000000,90.00000000,90.00000000
9803,BaBi4O7,2.5046,7.79204953,7.79204953,8.76390975,80.99372222,80.99372222,33.29463520
9804,K2Sn5Cl12,2.4961,10.18739200,11.72150400,11.94329638,61.33461759,90.00000000,90.00000000
9805,Sr4NdNb2Al3O15,2.5183,22.84219342,22.84219342,22.84219401,13.90107040,13.90107040,13.90107108
9806,P6(Pb2O5)5,2.5131999999999994,7.47371100,10.00366700,17.33359448,89.91861916,90.00000000,90.00000000
9807,TiSi4(NCl7)2,2.5220000000000002,12.56449400,12.87873700,14.97232300,90.00000000,90.00000000,90.00000000
9808,Rb2Cd2(SO4)3,2.5197,10.64768200,10.56880300,11.00651213,88.88391100,90.00000000,90.00000000
9809,Mn2InC10BrO10,2.5023,8.91181900,9.92806775,10.51104514,116.62544947,92.16437912,93.42062955
9810,RbNa10Al11Si13O48,2.5018,12.22004100,12.26570352,12.74578328,89.90914540,89.49384362,89.97143550
9811,Na3DyTi2Nb2O12,2.5159000000000002,5.47232500,5.63279100,15.47606700,90.00000000,90.00000000,90.00000000
9812,P4S5,2.4934,11.56210100,6.92053300,7.51482135,67.10854928,90.00000000,90.00000000
9813,Li11Sc7Ti(PO4)12,2.5181999999999998,9.49872600,9.95544476,10.18287401,89.96207261,92.50878192,96.16086946
9814,K2NaH10IO10,2.5046,6.80350200,7.39991941,10.83483668,98.29728778,107.42450621,93.11241550
9815,LiFeP2O7,2.5246000000000004,8.05507200,7.19284400,9.60371688,69.15493503,90.00000000,90.00000000
9816,LiFeP2O7,2.4920999999999998,6.31850212,6.31850212,13.41586990,74.11222264,74.11222264,80.48750806
9817,Na3H7Ru,2.519,9.55158700,9.55158700,5.31828200,90.00000000,90.00000000,90.00000000
9818,FeH4(CO3)2,2.5119,6.90208182,10.57043513,8.14319807,105.61370145,99.05745127,102.34751391
9819,BaVCdP2O9,2.498,8.94382500,9.03930100,19.74939100,90.00000000,90.00000000,90.00000000
9820,Na2TiFe(PO4)3,2.4989999999999997,9.90361000,9.90361000,9.90361000,90.00000000,90.00000000,90.00000000
9821,UP3HO11,2.522,8.78477600,9.92462800,21.03153851,85.85723334,90.00000000,90.00000000
9822,K2TiH2O3F4,2.5152,14.52319300,6.14007700,8.58433495,60.04989395,90.00000000,90.00000000
9823,Mo3P5Pb3O23,2.5271,8.28060900,14.57787900,15.93083700,90.00000000,90.00000000,90.00000000
9824,Na2Cr2O7,2.5252999999999997,7.77206000,9.49204516,10.15017187,75.73951745,70.06605346,70.35793886
9825,K2Cr2O7,2.5105000000000004,8.69685896,8.69685896,8.14085835,86.33990029,86.33990029,45.43875955
9826,Li3Fe2(PO4)3,2.5238,8.75837120,8.75837120,8.71305200,60.25531282,60.25531282,59.72603522
9827,Li6Co5(P2O7)4,2.5002999999999997,12.88677639,9.06972996,10.49413509,65.84579798,87.79314224,73.67232619
9828,H18RuC6S3N3ClO3,2.513,12.04808400,8.28275500,17.26462801,61.59113009,90.00000000,90.00000000
9829,HOs3C10ClO10,2.4931,7.88503700,8.93369362,13.73764201,94.85752407,102.97847018,110.67435400
9830,P2H10S4N2O,2.5304,8.18261000,8.78566900,14.46450900,90.00000000,90.00000000,90.00000000
9831,NbCl4F,2.5126999999999997,8.43989100,9.48639227,10.22838772,77.21134993,67.39243693,69.32453325
9832,UAsH9O10,2.5299,7.16654200,7.23755327,17.72373178,89.99232357,89.81677262,89.92457989
9833,ErP2H7O10,2.4934,8.28229800,9.77417000,11.00334300,90.00000000,90.00000000,90.00000000
9834,CaEr15Si8Se11ClO28,2.5023,10.86995704,10.86995704,11.85805854,56.99918246,56.99918246,66.14694215
9835,CdH2SeO5,2.5187,7.81794400,7.93896700,8.56871503,57.23817760,90.00000000,90.00000000
9836,KFe2P2H5O11,2.5033000000000003,9.80068700,9.86607300,12.30515086,51.54527163,90.00000000,90.00000000
9837,NiH10(SeO5)2,2.4942,8.12340248,8.12340248,12.14188046,61.18100326,61.18100326,59.18832608
9838,ScH16I3O8,2.5303,8.90475900,13.27807000,15.45327083,69.62316429,90.00000000,90.00000000
9839,MnH8(NO5)2,2.5077999999999996,27.69944400,5.45637300,6.22066706,59.99643205,90.00000000,90.00000000
9840,VH7N2O5,2.5029,6.88170200,8.53859400,9.45437400,90.00000000,90.00000000,90.00000000
9841,NiH18C4S6(N2O)4,2.5269,9.08787000,10.56892900,19.31207600,90.00000000,90.00000000,90.00000000
9842,Li2Fe2OF4,2.4936,3.03121300,5.19527299,12.66112500,90.00005791,90.00004606,73.03423567
9843,NaFeP2O7,2.5299,4.90523463,7.16838008,8.25683800,89.99928784,89.99934794,107.10820064
9844,Li4FeO3,2.4969,5.66837707,6.94423510,9.21363683,78.73490877,83.63782873,71.47076892
9845,Li3VF6,2.4954,5.22685600,5.18467700,9.31931744,56.57584736,90.00000000,90.00000000
9846,TaCrO4,2.4948,5.62189514,5.62191030,5.62188136,72.80382753,107.19417824,65.87391520
9847,LiNi2OF3,2.4959,5.94214430,5.94214430,5.05275900,90.00000000,90.00000000,120.00000331