,pretty_formula,bandgap,cell_length_a,cell_lentgh_b,cell_lentgh_c,cell_angle_alpha,cell_angle_beta,cell_angle_gamma
7989,NaLaSe2,2.35,7.46365786,7.46365786,7.46365825,34.16860612,34.16860612,34.16860730
7990,CaFeO2,2.3604,3.25646300,7.91428160,8.01997475,107.96776478,90.09861054,90.70115997
7991,Ti3Zn2O8,2.3562,6.04369321,6.04369321,5.01700402,70.62917803,70.62917803,59.42660600
7992,SrTi(PO4)2,2.3476,5.49568100,7.23009343,9.22316803,108.47883826,101.72808427,98.52265358
7993,Ca2AlBiO5,2.3709000000000002,5.65762800,6.04238151,8.75327762,110.16126367,107.41824674,90.04053691
7994,AlMo(WO4)2,2.369,5.17915700,5.55738734,5.65901229,74.37231748,84.27683801,73.67020715
7995,V(Si2O5)2,2.3436000000000003,7.39946500,7.39946500,15.67515800,90.00000000,90.00000000,90.00000000
7996,TiZnFe(PO4)3,2.3715,8.55370580,8.55370580,8.55370547,60.50036411,60.50036411,60.50036618
7997,MgTiFe(PO4)3,2.3679,8.50781763,8.50781763,8.50781773,60.88490314,60.88490314,60.88490709
7998,MgBi2P2O9,2.3569,6.59723200,7.17957800,16.09591200,90.00000000,90.00000000,90.00000000
7999,LaTiZnCrO6,2.3732999999999995,5.56468600,5.37162400,9.40202532,55.24608381,90.00000000,90.00000000
8000,Na2CoP2O7,2.3799,8.02553327,11.51303836,8.26875622,106.24095790,113.56709402,70.81629968
8001,CaMg3SiN4,2.4057999999999997,10.56176327,10.56176327,10.56176327,114.08202001,114.08202001,100.59770814
8002,Mg30NiCO32,2.4067000000000003,8.50311400,8.50311400,8.49776300,90.00000000,90.00000000,90.00000000
8003,RbMg30FeO32,2.4002999999999997,8.62327500,8.62327500,8.59563600,90.00000000,90.00000000,90.00000000
8004,RbMg30MnO32,2.3997,8.64757600,8.64757600,8.57053500,90.00000000,90.00000000,90.00000000
8005,NaLiMg30O31,2.3818,8.52807600,8.54799200,8.56608800,90.00000000,90.00000000,90.00000000
8006,Li20Si3P3S23Cl,2.3968,8.78311200,8.77628800,12.75154308,89.70147209,90.00000000,90.00000000
8007,SrEr2O4,2.3876999999999997,3.23161500,6.04980500,7.82931240,86.19840899,90.00000000,90.00000000
8008,TiSiO4,2.4044999999999996,6.09611716,6.09611716,6.09611716,135.66917633,135.66917633,64.49221053
8009,BaNb4(FeO7)2,2.414,8.80190387,10.11303917,9.11004344,83.64568960,112.18499162,92.10204358
8010,Li20Si3P3S23Cl,2.3811,8.85096400,8.77029000,12.77184453,89.89237838,90.00000000,90.00000000
8011,LiMg30BO31,2.3960999999999997,8.40393600,8.54771300,8.61182600,90.00000000,90.00000000,90.00000000
8012,Sr5W3O14,2.4063,10.82182900,10.91169100,11.06534200,90.00000000,90.00000000,90.00000000
8013,NdIO,2.383,11.42211929,11.42211929,11.42211931,20.55828571,20.55828571,20.55828415
8014,Yb(InS2)2,2.4057999999999997,6.07033684,6.07033684,10.20738700,90.00000000,90.00000000,114.40130946
8015,K3InBr6,2.4124,8.23196037,8.23196037,8.23196037,60.00000000,60.00000000,60.00000000
8016,Cs2RbScI6,2.4133,9.03570319,9.03570319,9.03570319,60.00000000,60.00000000,60.00000000
8017,K2SmCuCl6,2.4080000000000004,7.39791378,7.39791378,7.39791378,60.00000000,60.00000000,60.00000000
8018,CsRb2IrF6,2.411,6.78428369,6.78428369,6.78428369,60.00000000,60.00000000,60.00000000
8019,KInF3,2.3947000000000003,6.60052926,6.60052926,6.60052926,60.00000000,60.00000000,60.00000000
8020,K2InBiF6,2.4141000000000004,6.84537771,6.84537771,6.84537771,60.00000000,60.00000000,60.00000000
8021,K2AgAsF6,2.4127,6.33054458,6.33054458,6.33054458,60.00000000,60.00000000,60.00000000
8022,Cs2PrCuCl6,2.3993,7.57124262,7.57124262,7.57124262,60.00000000,60.00000000,60.00000000
8023,Cs2KTlCl6,2.3781,7.98385640,7.98385640,7.98385640,60.00000000,60.00000000,60.00000000
8024,Cs2YCuBr6,2.3867000000000003,7.84388320,7.84388320,7.84388320,60.00000000,60.00000000,60.00000000
8025,Rb2PrCuCl6,2.4088999999999996,7.49896924,7.49896924,7.49896924,60.00000000,60.00000000,60.00000000
8026,Na3YI6,2.4006000000000003,8.63772794,8.63772794,8.63772794,60.00000000,60.00000000,60.00000000
8027,Rb2AgSbF6,2.3859000000000004,6.58298877,6.58298877,6.58298877,60.00000000,60.00000000,60.00000000
8028,Rb2NaIrF6,2.4029,6.14864419,6.14864419,6.14864419,60.00000000,60.00000000,60.00000000
8029,Rb2InAsF6,2.4102,6.62346498,6.62346498,6.62346498,60.00000000,60.00000000,60.00000000
8030,KRb2InBr6,2.3924,8.26471497,8.26471497,8.26471497,60.00000000,60.00000000,60.00000000
8031,Rb3ScI6,2.3978,9.00027856,9.00027856,9.00027856,60.00000000,60.00000000,60.00000000
8032,Na2VF5,2.3777,5.39546700,7.56961800,11.10104651,72.27176662,90.00000000,90.00000000
8033,P2S3,2.3961,10.47886300,4.63098600,11.63514773,67.08128690,90.00000000,90.00000000
8034,Li4Zn(PS4)2,2.3984999999999994,6.14038100,8.09198988,19.09873335,90.12813579,90.12901116,90.10222203
8035,BaTi(BO3)2,2.4012000000000002,6.32542362,6.32542362,6.32542442,47.29423992,47.29423992,47.29423391
8036,LiCr(PO3)4,2.3937,10.37867200,9.07134500,9.42082578,88.82683199,90.00000000,90.00000000
8037,Ba6Ti2Nb10Si8O51,2.3983,12.03307322,12.03307322,9.12137306,67.87368188,67.87368188,81.85743716
8038,NaMn2Mo2H3O10,2.4144,5.85590957,5.85592243,7.81793747,68.58807063,68.58818640,69.55815360
8039,Na4CaFe4(PO4)6,2.3880999999999997,8.83494410,8.83494410,6.49031426,73.61996429,73.61996429,91.49461666
8040,Na2Al2Si3(HO3)4,2.4004,9.02883100,9.72933172,15.82928454,90.66450596,95.25279464,117.43853602
8041,LiSn(SO4)2,2.4112999999999998,9.47042000,9.84509700,14.82431831,89.37488026,90.00000000,90.00000000
8042,LiFe2O2F3,2.3844,5.62715863,5.62715863,7.04103280,70.09567930,70.09567930,54.78632544
8043,Li2Cr2O7,2.3799,8.00642422,8.00642422,5.93055670,79.21927407,79.21927407,56.76675865
8044,K3MnPCO7,2.3967000000000005,7.04805000,5.67218100,9.76642896,89.06013362,90.00000000,90.00000000
8045,CsLiO,2.4017,3.65006300,6.86165100,9.79147000,90.00000000,90.00000000,90.00000000
8046,BiOF,2.4102,7.26448658,6.87229926,6.04304824,68.10440854,61.37480237,50.52078909
8047,MgO2,2.3793999999999995,3.95494210,3.95494210,3.95494158,47.87764431,47.87764431,47.87763997
8048,Ge7H18O23,2.399,7.56724000,8.03120492,8.06406745,89.08021789,88.68691039,89.38481800
8049,BSbO3,2.400500000000001,3.52070500,3.52070500,3.52070500,90.00000000,90.00000000,90.00000000
8050,Ho2Mg2O5,2.3835999999999995,3.86357200,3.86357200,7.20022000,90.00000000,90.00000000,90.00000000
8051,LiMnVF6,2.3789000000000002,4.82596100,4.82596100,9.55441400,90.00000000,90.00000000,90.00000000
8052,NdBS3,2.4076999999999997,6.07159000,7.57325000,8.92743200,90.00000000,90.00000000,90.00000000
8053,BaAl4Se7,2.3933,6.62518600,7.72266800,14.91439570,58.98566460,90.00000000,90.00000000
8054,BiIO4,2.3945,5.73702400,5.81018600,11.26658200,90.00000000,90.00000000,90.00000000
8055,S4I2O15,2.3886999999999996,5.60498600,6.87857060,9.28607751,96.18282592,93.44202162,108.79611669
8056,NdBN2,2.3825,7.39649395,7.39649395,7.39649362,110.49766911,110.49766911,110.49767329
8057,Na2Nb4Se4O19,2.4028,4.01449000,10.36853919,11.12372716,106.08043585,90.05296024,97.42126349
8058,Er2ZnS4,2.3855000000000004,6.31042600,7.85433300,13.44695000,90.00000000,90.00000000,90.00000000
8059,ReS2ClO9,2.4051,7.27678300,7.92311205,8.28316859,89.98673353,100.67030254,112.19742344
8060,LiMnVF6,2.4013,8.85586743,8.85586743,4.73795400,90.00000000,90.00000000,119.99999573
8061,Li3SbS3,2.4002999999999997,6.84638600,7.99900100,10.15862000,90.00000000,90.00000000,90.00000000
8062,YNb(TeO4)2,2.4025000000000003,5.60848946,5.60848946,22.26038000,90.00000000,90.00000000,93.07085888
8063,Hg2Te4Kr3(O2F13)2,2.397,18.08387900,9.20715200,10.22627701,58.44550992,90.00000000,90.00000000
8064,NbTlV2O8,2.4078,5.69560300,8.87648300,15.24415800,90.00000000,90.00000000,90.00000000
8065,KNbV2O8,2.4096,5.68247000,8.70743100,15.20182700,90.00000000,90.00000000,90.00000000
8066,Sn2H22S6N4O3,2.3969,8.79086300,8.79086300,23.42808600,90.00000000,90.00000000,90.00000000
8067,NbIn(TeO4)2,2.4083000000000006,7.81051700,7.81243400,11.04468500,90.00000000,90.00000000,90.00000000
8068,AgBi(IO3)4,2.4068,16.32565408,16.32565408,12.88148210,89.39971611,89.39971611,20.06705739
8069,HgH9C3SI3,2.3803,16.59109700,9.05067200,12.54143342,51.78171285,90.00000000,90.00000000
8070,YAg(IO3)4,2.3973999999999998,16.15183295,16.15183295,12.68526730,89.04270777,89.04270777,20.12712611
8071,VPb2Se3O10,2.3788,16.33586300,5.29279600,12.60395598,65.63949336,90.00000000,90.00000000
8072,CrPH12(CO)4,2.3857,12.90299838,12.86804648,13.37184192,90.00000000,90.00000000,90.00000000
8073,Cs4Co3F10,2.4139,7.98636710,7.98636710,14.07332100,90.00000000,90.00000000,133.56252696
8074,H13RuN5(ClO)2,2.4077,6.90791740,6.90791740,11.22281540,74.62620101,74.62620101,66.98726695
8075,BaNd2In2O7,2.3839000000000006,5.97934000,5.97934000,20.78517900,90.00000000,90.00000000,90.00000000
8076,UH25C12NO8,2.3945,11.05051798,12.91577941,13.81067338,90.00000000,90.00000000,90.00000000
8077,KAsW2O9,2.3926,5.06527300,9.37930300,17.14962200,90.00000000,90.00000000,90.00000000
8078,Nb4Ag2O11,2.3949000000000007,13.18874355,13.18874355,13.18874404,27.57437886,27.57437886,27.57438051
8079,Nb3Te4ClO15,2.3912,10.45851151,10.45851151,21.56382277,65.59478135,65.59478135,45.07489021
8080,PH9PtC3Cl2,2.3985000000000003,10.99686900,6.74907200,12.01484187,72.40873704,90.00000000,90.00000000
8081,HC2N3,2.4047,4.22585800,12.77288229,16.96000083,89.98264045,89.93158964,89.62178241
8082,Ba(SO2)2,2.4131,7.59988000,7.67817300,18.24775000,90.00000000,90.00000000,90.00000000
8083,NaTi2(AsO4)3,2.3987,9.17861929,9.17861929,9.17861955,58.70246415,58.70246415,58.70246858
8084,Li15H9N8,2.3794,10.41769300,7.18575200,7.18604908,88.61543135,90.00000000,90.00000000
8085,Tl2Mo3SeO12,2.3967,7.37871110,7.37871110,12.18883600,90.00000000,90.00000000,119.99999193
8086,Ba2GaBiS5,2.39,9.00877800,9.08075300,12.37686300,90.00000000,90.00000000,90.00000000
8087,HC2N3,2.4015,4.21627900,12.75390000,17.00156400,90.00000000,90.00000000,90.00000000
8088,Cs3B12AsF18,2.384,14.30553590,14.30553590,14.30553590,109.47122063,109.47122063,109.47122063
8089,InH12C4Se2I3,2.3882,8.77015800,8.53806900,25.57904991,89.90399572,90.00000000,90.00000000
8090,Ba2GaSbS5,2.3953,8.97165200,9.12353600,12.35173200,90.00000000,90.00000000,90.00000000
8091,NiH15IO12,2.3808000000000002,9.82884100,5.18677600,10.65667302,63.91982665,90.00000000,90.00000000
8092,Rb9Fe7(PO4)10,2.3979999999999997,10.03552149,13.68200401,16.77974453,90.00015706,90.00009265,110.54256225
8093,KMnF3,2.4091000000000005,6.00904210,6.00904210,6.00904210,120.05422893,119.64688248,90.25940097
8094,Ba2ZnMoO6,2.4114,5.82712273,5.82712273,5.82712273,60.00000000,60.00000000,60.00000000
8095,YFe3(BO3)4,2.3991,6.12433214,6.12433214,6.12433292,103.91920562,103.91920562,103.91920774
8096,TlVSeO5,2.411,7.22608900,8.02725600,8.81029300,90.00000000,90.00000000,90.00000000
8097,Sr5Re3BrO15,2.3998,7.55465700,10.75396500,18.81928000,90.00000000,90.00000000,90.00000000
8098,SnIBr,2.3803,4.44032800,8.91685900,11.59904400,90.00000000,90.00000000,90.00000000
8099,Ni2Mo3O8,2.3867000000000003,5.83864981,5.83864981,10.03440100,90.00000000,90.00000000,119.99999780
8100,Mn3Al2(GeO4)3,2.3798000000000004,10.42918367,10.42918367,10.42918367,109.47122063,109.47122063,109.47122063
8101,KHgH2Cl3O,2.3937,4.28996200,8.75665700,18.22914000,90.00000000,90.00000000,90.00000000
8102,HoFe3(BO3)4,2.4113,6.12574564,6.12574564,6.12574584,103.96283359,103.96283359,103.96283425
8103,K10CoMo7O27,2.401,8.03323100,10.75643500,18.62914600,90.00000000,90.00000000,90.00000000
8104,La4TiO8,2.3992000000000004,13.46450500,13.46450500,7.73734100,90.00000000,90.00000000,90.00000000
8105,Gd(ClO4)3,2.3893,9.51194388,9.51194388,5.76854200,90.00000000,90.00000000,119.99999914
8106,C4Cl5,2.413,10.06505703,16.68624575,18.80913649,90.00000000,90.00000000,90.00000000
8107,Y9Al5S21,2.3804999999999996,11.44201940,11.44201940,11.44201976,94.22129397,94.22129397,94.22129001
8108,TiNi4GeO8,2.3893000000000004,5.91560018,5.91560018,5.91560018,60.00000000,60.00000000,60.00000000
8109,TiNbBiO6,2.3923,5.37333900,6.99613071,7.65928766,67.80772285,69.69458387,81.72205456
8110,SrNdCrO4,2.4029000000000003,6.77525945,6.77525945,6.77525945,146.49682934,146.49682934,48.10939069
8111,Sr2SeS,2.4103999999999997,7.57869049,7.57869049,7.57869077,33.52427717,33.52427717,33.52428108
8112,Sm9Al5S21,2.3806,11.61313658,11.61313658,11.61313697,94.80150992,94.80150992,94.80151593
8113,Sr10Mg5Mo4WO30,2.3880000000000003,5.64543500,5.65814253,23.38010847,83.46178734,83.06846960,60.08955288
8114,Sb8Cl2O11,2.4099000000000004,4.21523200,9.16309455,11.47414414,82.32102950,86.84209477,79.99249290
8115,Nd2MnGaO6,2.3974,5.80981500,5.47325700,9.44071101,55.01548592,90.00000000,90.00000000
8116,Nd2Si2PbS8,2.4105000000000003,9.05285851,9.05285851,10.24274592,65.20423757,65.20423757,60.31913623
8117,Nd9Al5S21,2.3879,11.73938731,11.73938731,11.73938757,95.07434377,95.07434377,95.07434649
8118,NaHoTi2O6,2.3804000000000003,5.31843100,5.54303400,7.62179400,90.00000000,90.00000000,90.00000000
8119,NaLa2TaTi2O10,2.3998999999999997,3.88165300,3.88586604,15.18859613,96.93167987,96.92743191,89.99168401
8120,NaTmTi2O6,2.4032000000000004,5.30759000,5.52152600,7.60387000,90.00000000,90.00000000,90.00000000
8121,NaSr2Nb5O15,2.3875,12.62277100,12.62277100,4.07861800,90.00000000,90.00000000,90.05348503
8122,NaLuTi2O6,2.3986,5.26758900,5.51360600,7.59579600,90.00000000,90.00000000,90.00000000
8123,Na7Fe7P6(O8F)3,2.3779999999999997,13.76538379,13.76538379,6.79719700,90.00000000,90.00000000,119.99999901
8124,NaErTi2O6,2.3916,5.31039500,5.52733100,7.61137400,90.00000000,90.00000000,90.00000000
8125,Na4Ni3(SbO5)2,2.4142,5.31807252,9.53881813,9.53881282,108.50035161,95.91198983,95.91210533
8126,Na4AlFe3O8,2.4093999999999998,5.43911000,5.75610012,7.11609578,89.98993655,89.97504817,89.90986719
8127,Na3SmTi2Nb2O12,2.3945,5.49253200,5.58736015,7.83152227,89.88435611,89.96626571,89.73860074
8128,MnNb8(FeO8)3,2.4038,5.88021300,5.13262200,14.53049183,89.88197776,90.00000000,90.00000000
8129,MgZnO2,2.3955,5.24932938,5.24932938,5.24932875,33.70470242,33.70470242,33.70470066
8130,LiLa5Si4N10O,2.3922999999999996,5.76825600,6.58656380,8.38855714,103.13807507,107.61241056,94.60657729
8131,Li3Al2CoO6,2.4135,2.85832966,2.85832966,14.42732700,90.00000000,90.00000000,119.99999213
8132,Li2MgTi3O8,2.3786,5.97351154,5.97351154,5.97351170,60.07297280,60.07297280,60.07296156
8133,Li2Ti4Co(PO5)4,2.3821000000000003,6.44419300,7.33110893,7.48555690,89.74916706,89.56536103,89.48344769
8134,La3NdCr4O12,2.4105000000000008,7.87286100,5.57383800,5.57505341,89.93658984,90.00000000,90.00000000
8135,La5Ti4GaO17,2.4139999999999997,3.95392400,5.55499300,31.43220000,90.00000000,90.00000000,90.00000000
8136,K12Mo4S11Cl4O5,2.4086,6.35317400,12.57893632,12.70277032,90.01131881,90.43899271,90.54655968
8137,Gd2ScNbO7,2.3917,7.43226465,7.43226465,7.43226465,120.57262681,119.40253256,90.02449978
8138,Gd2InSbO7,2.4073999999999995,7.49497915,7.49497915,7.49497915,120.70625588,119.07267553,90.19736030
8139,Ca6Br2N3Cl,2.4139000000000004,3.70076791,3.70076791,20.51449900,90.00000000,90.00000000,119.99999843
8140,CaLaMnNbO6,2.396000000000001,5.82463000,9.83068652,9.85411266,69.84495328,90.00014989,90.00023586
8141,CaCdS2,2.3819,6.77152081,6.77152081,6.77152121,34.37894741,34.37894741,34.37895162
8142,Bi2BrClO2,2.3954000000000004,3.94743300,3.94743300,7.84878200,90.00000000,90.00000000,90.00000000
8143,Cr2H28C10N6O7,2.3929,12.12409700,8.36594600,11.23486272,69.47507716,90.00000000,90.00000000
8144,BaGa2SiSe6,2.4016,6.53101900,6.65539777,6.74245431,99.86621051,102.60490376,98.49434709
8145,Ba4InSbO8,2.3802000000000003,7.35162560,7.35162560,6.00486800,90.00000000,90.00000000,131.87158249
8146,Ba3Ta4TiO15,2.3841,12.76002100,4.01854500,12.68451842,89.95216512,90.00000000,90.00000000
8147,Ba5Nb2O11,2.4017999999999997,6.13831237,6.13831237,18.62049046,89.71564584,89.71564584,119.97023263
8148,Ba3La2Ti2Nb2O15,2.3858000000000006,5.72454801,5.72454801,11.75964000,90.00000000,90.00000000,120.00000007
8149,Ba4Ta10CoO30,2.4105,10.01896926,10.01896926,10.01896926,133.50862116,117.87903965,81.02113092
8150,Ba2S2O3F2,2.3891999999999998,4.63482500,4.72285037,8.11084732,103.54913672,101.06069541,88.16105385
8151,Ba3Ti4Sb4O21,2.3999,9.09698379,9.09698379,12.05451147,89.73779186,89.73779186,60.09264803
8152,Ba2La4Ti5O18,2.3854000000000006,13.94542306,13.94542306,13.94542278,23.25181338,23.25181338,23.25181234
8153,Ba13Ca2Re9(ClO15)3,2.4046,7.88862140,19.00000815,18.99977044,120.00048747,89.99995199,90.00172080
8154,H8C2N6O7,2.3956999999999997,8.41973972,8.41973972,7.88367518,84.48714554,84.48714554,120.75887565
8155,Ta2O5,2.4075,3.86754800,3.86277800,6.67563649,79.31976450,90.00000000,90.00000000
8156,W2O5,2.3902,12.06615700,6.15292742,3.86901600,108.32486709,90.00000000,90.00000000
8157,TiO2,2.4119,10.36447698,10.63076341,10.32659754,93.99498655,88.82900072,91.78792411
8158,Pt(C4N3)2,2.3798,5.20911083,7.08545999,14.60248025,90.00000000,90.00000000,90.00000000
8159,Ca3Si4(SbO7)2,2.4072000000000005,9.92325514,9.92325514,10.73231768,58.02192967,58.02192967,47.81904379
8160,Zn3Cr2(SiO4)3,2.3960000000000004,10.23797219,10.23797219,10.23797219,109.47122063,109.47122063,109.47122063
8161,AlBi(WO4)2,2.3876000000000004,6.29973900,5.13710200,10.72214123,64.89974107,90.00000000,90.00000000
8162,MgFe2(SiO3)4,2.3851000000000004,5.22163900,9.63553500,18.50604500,90.00000000,90.00000000,90.00000000
8163,Li5Fe(SiO4)2,2.4015,9.93159948,14.10487751,9.78405598,90.00000000,90.00000000,90.00000000
8164,Sr2CoWO6,2.3936,5.67187276,9.84037627,5.67142283,73.90117736,119.89018847,106.09637542
8165,Mg2FeWO6,2.3884999999999996,5.23148645,5.23304023,5.56756242,89.40010753,62.61207771,119.86795256
8166,Sr2FeWO6,2.3907999999999996,5.76283833,5.64325205,9.84789796,106.15101140,89.41946674,119.63250439
8167,Zn2CoWO6,2.3939999999999997,5.26628335,5.26390802,7.86451833,89.99296205,88.88183166,90.00528014
8168,CrO,2.3962000000000003,4.10984559,5.44988699,4.46821797,89.99996102,90.00008230,91.54429763
8169,LiCrPO4,2.4122,5.10107827,5.19450762,6.49664257,90.48520741,91.45853685,64.82137139
8170,AlFe(WO4)2,2.4034,5.10211260,6.74499411,8.98438213,92.46106841,76.54463023,76.24930649
8171,Ca2Ta2O7,2.3960999999999997,7.44953399,7.44953399,7.44953399,60.00000000,60.00000000,60.00000000
8172,KNa4GaO4,2.3943000000000003,6.03818500,10.66154200,18.91911000,90.00000000,90.00000000,90.00000000
8173,MnZnF6,2.3922,5.40106512,5.40106512,5.40106532,58.29972197,58.29972197,58.29972242
8174,SrVZnP2O9,2.405,9.14686800,9.26147500,17.72525100,90.00000000,90.00000000,90.00000000
8175,KSmS2,2.3791,7.76386219,7.76386219,7.76386234,30.97298502,30.97298502,30.97298343
8176,KHoS2,2.3857,7.72380892,7.72380892,7.72380936,30.28895365,30.28895365,30.28895116
8177,Li2MnO2F,2.4055,4.60658400,5.69083300,8.71038500,90.00049817,89.99997441,89.99995499
8178,Ba3Te2O9,2.3815999999999997,5.95466374,5.95466374,14.62747200,90.00000000,90.00000000,119.99999716
8179,Tm2ZnS4,2.3802000000000003,6.29319200,7.79425000,13.39512100,90.00000000,90.00000000,90.00000000
8180,Rb3SbS4,2.3952,9.73719000,10.13671200,11.32125900,90.00000000,90.00000000,90.00000000
8181,SmPtF7,2.4107000000000003,5.63097400,9.07580000,12.18920398,62.11023257,90.00000000,90.00000000
8182,Lu2ZnS4,2.3851000000000004,6.26795100,7.72716000,13.29924500,90.00000000,90.00000000,90.00000000
8183,CrPO4,2.3858999999999995,4.74057262,8.77685468,6.31542400,90.00000000,90.00000000,83.36559774
8184,NiO,2.4141000000000004,2.98307704,2.98308198,5.15994095,106.80216283,73.19772653,119.99806323
8185,TbFe3(BO3)4,2.3999999999999995,6.12326570,6.12326570,6.12326642,103.81087653,103.81087653,103.81088197
8186,BaMnV2(AgO4)2,2.3954999999999997,5.63470057,14.94515900,5.63470000,90.00000000,119.99999666,90.00000000
8187,MnSe2O5,2.4005,6.00981834,7.70832130,11.06866622,89.99999864,90.00000166,72.00668049
8188,KFe(MoO4)2,2.4118,5.77693211,9.36439334,9.36728677,76.14298342,107.97156636,72.05635650
8189,MnBPbO4,2.3821999999999997,6.07646700,6.81441801,8.76399201,90.00545692,90.00054805,89.99884466
8190,Li2GePbS4,2.4018,6.10099473,6.10099473,6.10099473,114.83991962,114.83991962,99.19709218
8191,CsFeP2O7,2.3933,10.11283900,7.80870000,8.51503516,75.03671728,90.00000000,90.00000000
8192,TlF,2.3991999999999996,4.01740172,4.01740172,4.01740172,60.00000000,60.00000000,60.00000000