,pretty_formula,bandgap,cell_length_a,cell_lentgh_b,cell_lentgh_c,cell_angle_alpha,cell_angle_beta,cell_angle_gamma
2220,Al3Te3I,1.9642999999999997,4.15318500,11.67025200,21.30771300,90.00000000,90.00000000,90.00000000
2221,PrNb5O14,1.9451,6.34844800,7.78965400,20.55868700,90.00000000,90.00000000,90.00000000
2222,BaV3O8,1.9669,5.63825400,7.60836600,8.38565679,72.60514420,90.00000000,90.00000000
2223,Cd(AuF4)2,1.9788000000000001,5.89164700,5.89164700,10.53472100,90.00000000,90.00000000,90.00000000
2224,BaGdCl5,1.9502,10.12929801,10.12929801,6.93225315,89.10018262,89.10018262,148.05071930
2225,MgB9N,1.9607999999999999,7.39770507,7.39770507,7.39770468,43.60080015,43.60080015,43.60080546
2226,AuBrF6,1.9743,5.79034100,5.60352200,9.03494733,78.23819484,90.00000000,90.00000000
2227,S(IO3)2,1.9691,8.02577144,8.02577144,10.51337680,59.64537306,59.64537306,34.50080876
2228,Cr(PO3)3,1.949,9.36577700,9.38388717,9.62057736,104.13207302,109.96844590,108.81730638
2229,LiV(PO4)2,1.9495,13.65816500,6.22781400,7.55703584,80.09865599,90.00000000,90.00000000
2230,Na2W4O13,1.9482,3.85189000,8.53469644,8.69695622,96.31728031,102.71161917,89.95253570
2231,Ag2W2O7,1.9614000000000003,6.21084500,7.23679513,7.80894544,106.89774453,87.43817087,103.06286967
2232,Ho2S3,1.9535,13.70587323,13.70587323,13.70587323,144.80791510,144.80791510,50.62086701
2233,Li2S,1.9737,3.99635662,3.99635640,44.66346408,60.51829035,60.51828833,59.99481120
2234,LiYS2,1.9596999999999998,6.77152314,6.77152314,6.77152314,132.54580134,132.54580134,69.36834705
2235,LiDyS2,1.9741999999999997,6.77020674,6.77020674,6.77020674,132.62466772,132.62466772,69.24420351
2236,TiO2,1.9758,3.82734912,3.82734912,5.47203911,70.10663939,70.10663939,90.01314714
2237,Ba(PrS2)2,1.9463000000000004,7.70912695,7.70912695,7.70912695,109.44357417,109.44357417,109.52652773
2238,SrUO4,1.9462000000000002,6.65848335,6.65848335,6.65848310,34.47035922,34.47035922,34.47035506
2239,Ba(AlTe2)2,1.9531,7.01022928,7.01022928,7.01022928,103.34291891,103.34291891,122.57768842
2240,BaSrLaBiO6,1.952,6.24469757,6.24469757,6.24469757,60.00000000,60.00000000,60.00000000
2241,Na3P11,1.9682,9.91374100,10.63204900,12.61677300,90.00000000,90.00000000,90.00000000
2242,LiGaTe2,1.9666000000000001,7.52258797,7.52258797,7.52258797,129.57863806,129.57863806,74.08128531
2243,TiMnH12(OF)6,1.9729,9.87749135,14.66670941,9.86648968,70.31510394,60.02361223,89.86304838
2244,Ca12Al14O33,1.9741999999999997,10.46641652,10.46641652,10.46641652,109.23772551,109.23772551,109.93922701
2245,Li2PtO3,1.9705,5.26993494,5.26993494,29.02091571,89.99016386,89.99016386,119.93208227
2246,Ca2Mn2V3AgO12,1.9655,11.06451609,11.06451609,11.06451609,109.69226289,109.69226289,109.03003490
2247,Ti(PO3)4,1.9482,7.45148056,7.45148056,9.89214112,68.56129522,68.56129522,66.93112029
2248,Sr2RhF7,1.9779,11.82805500,5.61923000,8.80584960,89.09782832,90.00000000,90.00000000
2249,Ba2SnS4,1.9632000000000005,8.68419900,8.61714800,12.17349512,67.15602969,90.00000000,90.00000000
2250,Pr4(GeS4)3,1.9765000000000006,11.61100580,11.61100580,11.61100597,114.79227466,114.79227466,114.79227632
2251,La3AgSnS7,1.9734999999999996,10.47675837,10.47675837,6.07142900,90.00000000,90.00000000,120.00000231
2252,UCdO4,1.9685000000000001,5.02404508,5.02404508,3.52678400,90.00000000,90.00000000,92.02894453
2253,K4CO4,1.9637000000000002,5.47210378,5.47210378,5.47210374,84.59483911,84.59483911,84.59483815
2254,Na2CoGeO4,1.9529999999999998,5.68554900,5.40709000,9.02874413,53.18997241,90.00000000,90.00000000
2255,SmCu(MoO4)2,1.9639,9.98273200,10.42041300,14.86667900,90.00000000,90.00000000,90.00000000
2256,VPO5,1.9627999999999999,9.37609000,9.37609000,8.74594000,90.00000000,90.00000000,90.00000000
2257,CaU(SeO4)2,1.9516,5.67427337,6.75244642,11.22934260,103.96591764,93.62543612,110.72598411
2258,NdCu(MoO4)2,1.9650999999999998,10.05556000,10.49166400,14.96714200,90.00000000,90.00000000,90.00000000
2259,Te3I(OF5)3,1.9785,10.01522200,10.68153400,14.90210799,88.14114257,90.00000000,90.00000000
2260,ZnS,1.9651,3.85305071,3.85305071,88.15440800,90.00000000,90.00000000,120.00001216
2261,Ta2Tl3Cu3S8,1.9486000000000003,10.30147182,10.30147182,7.44226537,83.81463581,83.81463581,31.45396645
2262,MoC3S2Cl7O,1.9769,10.33117800,8.37877300,9.00111091,72.35173108,90.00000000,90.00000000
2263,K2S2NO7,1.9601,7.28444700,7.45064564,7.79876852,67.79491441,81.19492327,82.10974032
2264,PrCu(MoO4)2,1.9748,10.09320100,10.53351700,15.02929500,90.00000000,90.00000000,90.00000000
2265,ZnS,1.9563,3.85307626,3.85307626,25.20812300,90.00000000,90.00000000,120.00000448
2266,VPO5,1.9468,5.09612529,5.09612529,7.38904551,72.07217048,72.07217048,87.72800931
2267,SrU(SeO4)2,1.9684000000000001,5.81231554,6.88887030,11.47307514,104.76538182,94.04440200,109.42835871
2268,CoPtF6,1.9695,5.48256945,5.48256945,5.48256965,56.52761071,56.52761071,56.52762151
2269,UTiNb2O10,1.9539000000000002,10.69763202,9.38300323,7.28526177,78.74802085,59.34477231,41.90720684
2270,ZnS,1.9620000000000002,3.85322634,3.85322634,69.24838100,90.00000000,90.00000000,120.00000591
2271,KCa2Nb3O10,1.9567999999999999,7.80844300,7.85488100,15.19056011,82.99393719,90.00000000,90.00000000
2272,HgINO3,1.9661,5.48516500,7.62655500,12.94684900,90.00000000,90.00000000,90.00000000
2273,Nd5Ti4FeO17,1.9546000000000001,5.50361300,7.74454300,32.16366416,83.03061515,90.00000000,90.00000000
2274,BCl(OF2)2,1.9708,5.21360282,5.21360282,9.76561694,83.53926838,83.53926838,115.93930585
2275,GdSClO4,1.954,6.63951000,6.88483900,9.54909169,74.93489543,90.00000000,90.00000000
2276,Na2Pd(NO2)4,1.9481000000000002,4.69923200,11.39365100,15.66385300,90.00000000,90.00000000,90.00000000
2277,Cr3B7IO13,1.9640000000000004,8.72642883,8.72642883,8.72642883,60.00000000,60.00000000,60.00000000
2278,MnVBiO5,1.9648999999999996,5.46632384,7.05047530,7.09958479,109.76390961,107.66225058,96.83565758
2279,YCu(MoO4)2,1.9545000000000001,9.88324800,10.30289600,14.72561200,90.00000000,90.00000000,90.00000000
2280,Na2USiO6,1.9767000000000001,11.48715241,11.48715241,11.48715241,111.85154814,111.85154814,104.80878176
2281,NaNb2PO8,1.9771999999999998,5.51119100,6.85178000,18.24685970,89.76713436,90.00000000,90.00000000
2282,Nd4(GeS4)3,1.9759000000000002,11.56033003,11.56033003,11.56033017,114.81904454,114.81904454,114.81904949
2283,Fe2TeO5,1.9513000000000003,5.04208700,7.77699200,10.95442865,77.00578269,90.00000000,90.00000000
2284,LaPb6BrO7,1.9727000000000001,9.70373959,9.70373959,8.27108200,90.00000000,90.00000000,118.81560317
2285,GaRe(Cl3O)2,1.9694,8.66396400,11.69776000,12.45684844,69.20614331,90.00000000,90.00000000
2286,KFe2(PO4)2,1.9463,10.22876900,8.00051700,9.27738336,64.45907877,90.00000000,90.00000000
2287,Na2PSe3,1.9743000000000002,8.98643002,8.98643002,8.10255800,90.00000000,90.00000000,96.73317971
2288,IrCl3,1.9770999999999999,11.72941762,11.18347638,6.22368877,79.14099634,69.45267176,31.40633190
2289,K2PtC4(BrN2)2,1.9544000000000001,9.26229100,7.31402300,8.80648756,73.29083552,90.00000000,90.00000000
2290,H8C2I3N,1.9774000000000003,6.59731100,10.10922100,14.95699800,90.00000000,90.00000000,90.00000000
2291,K6InTe4Cl,1.949,11.49038002,11.49038002,8.14190200,90.00000000,90.00000000,120.00000010
2292,Mn2Ru(CN)6,1.9679,6.07953410,6.07953410,6.77942100,90.00000000,90.00000000,120.00000106
2293,CdHgAsBr,1.9725000000000001,4.80486300,10.21266200,11.06423700,90.00000000,90.00000000,90.00000000
2294,ZnSe,1.9672,4.10770200,4.10770200,6.07035000,90.00000000,90.00000000,90.00000000
2295,Hg2TeBr3,1.9471,10.28220400,7.85781700,12.32063768,56.50403537,90.00000000,90.00000000
2296,MnTlCl3,1.9565000000000001,3.86639400,9.18479300,14.80879200,90.00000000,90.00000000,90.00000000
2297,SiC,1.9611,22.81363697,22.81363697,22.81363674,7.78713598,7.78713598,7.78713589
2298,SbCNCl6,1.9674999999999998,8.08289600,10.12700900,13.40851000,90.00000000,90.00000000,90.00000000
2299,LiAgC2,1.956,3.84160566,3.84160566,5.35559600,90.00000000,90.00000000,119.99999422
2300,KLa(PSe3)2,1.9558999999999997,7.94587100,12.01401100,12.64140334,70.60571735,90.00000000,90.00000000
2301,SrTi2O5,1.9511,8.92282611,8.92282611,12.22987100,90.00000000,90.00000000,128.00609425
2302,Cs4V2S4O3,1.9578,8.98696500,12.66180100,13.58315500,90.00000000,90.00000000,90.00000000
2303,SbSeCl7O,1.9449,15.21154300,12.86604100,13.69049831,74.01470965,90.00000000,90.00000000
2304,WSCl4,1.9731,13.63797700,9.60594700,13.45179515,68.21468376,90.00000000,90.00000000
2305,CsCr3O8,1.9784000000000002,5.57320100,8.66320600,16.86678800,90.00000000,90.00000000,90.00000000
2306,CsTlBr4,1.9743,7.02119700,7.96685200,18.48919900,90.00000000,90.00000000,90.00000000
2307,K3Nb2Ag3S8,1.952,12.86417497,12.86417497,14.42999975,60.83750588,60.83750588,26.86776200
2308,Li3Mo2P5O18,1.9592000000000005,6.64260100,9.56500206,10.66950240,96.59671124,92.49590328,92.45094564
2309,Zn2GeO4,1.9737,8.95509588,8.95509588,8.95509601,107.81594503,107.81594503,107.81594518
2310,La2Ti3(AgO5)2,1.9699999999999998,14.88329339,14.88329339,14.88329339,165.08297817,165.08297817,21.15630834
2311,V3H6CNO7,1.9649,6.73487600,10.45251000,15.46215892,51.24930250,90.00000000,90.00000000
2312,K2Cr4Co(HO4)4,1.9481,6.96476700,7.82987221,7.98691902,89.85502923,81.67754958,63.74867656
2313,Cu4H3C2N5,1.9598000000000004,5.78607171,5.78607171,10.86263600,90.00000000,90.00000000,119.99999663
2314,NbBr3O,1.9749999999999999,11.93270000,11.93270000,4.00131200,90.00000000,90.00000000,90.00000000
2315,Ru(CO)4,1.9482,8.57448140,8.57448140,8.57448140,138.89629368,130.58357490,66.16667509
2316,Fe2MoC10(SeO5)2,1.9635,6.88925600,9.50959049,13.82779891,81.86479696,82.22991284,85.42508993
2317,Re2H4O9,1.9464000000000001,8.90231100,4.99617300,8.29685457,81.16116738,90.00000000,90.00000000
2318,K5Th(PS4)3,1.9602,11.58655900,9.84923400,22.55143464,64.22836780,90.00000000,90.00000000
2319,Fe3C9Se2O9,1.9765,6.83787000,9.24919726,13.13652296,94.02188344,94.43545899,111.00583358
2320,SrUO4,1.9692999999999996,4.45346457,4.45346457,6.36721901,59.31004518,59.31004518,47.48231521
2321,NaB9Se8,1.9459000000000002,17.23554627,17.23554627,9.03849700,90.00000000,90.00000000,120.00000105
2322,CsK5Zn4Sn5S17,1.9554,11.02066020,11.02066020,11.02066020,101.16440848,101.16440848,127.78861912
2323,UTl2Cr2O10,1.9752999999999998,10.83731100,13.63247300,14.07159000,90.00000000,90.00000000,90.00000000
2324,PbWO4,1.9524,8.17586476,8.17586476,5.54265800,90.00000000,90.00000000,121.04098641
2325,SnHg2(SBr)2,1.9458,8.24090400,9.60794700,12.90337503,56.42028076,90.00000000,90.00000000
2326,H8C3N2O,1.9725000000000006,9.68338882,7.39486532,6.70004816,86.64061590,49.67205269,43.68733141
2327,AgN3O4,1.9626,5.96703800,9.91720700,14.08381400,90.00000000,90.00000000,90.00000000
2328,KUVO6,1.9565,8.52681200,7.08498800,10.72042308,89.99279555,90.00000000,90.00000000
2329,Co3Ge(CO)10,1.9585,8.79618000,9.28224185,22.20795193,95.67277445,96.66690601,117.70247991
2330,Os4C13SO13,1.96,9.70661400,15.57688467,15.85994455,113.26233731,99.37368122,95.54733742
2331,Gd3NCl6,1.9569999999999999,7.15926400,8.20857730,9.77551370,75.31442284,70.93682736,65.28075416
2332,Co4Ge(CO)13,1.9561,8.13932200,8.89228245,15.93843858,89.11415172,104.73671652,110.54933721
2333,Ru4C14O13,1.9656,9.35000900,9.46037078,14.06102578,78.03365414,74.63971482,64.30824493
2334,Ni(XeF8)2,1.9570999999999996,11.23662400,11.44905400,19.05261300,90.00000000,90.00000000,90.00000000
2335,Mg(GaS2)2,1.9741,13.07569274,13.07569274,6.47657717,80.87495995,80.87495995,121.05974299
2336,K2Pt(NO2)4,1.9676,13.51016500,8.13768200,9.97319630,88.96399788,90.00000000,90.00000000
2337,Na2CeO3,1.9763999999999995,7.14929314,7.14929314,19.00275738,81.68411725,81.68411725,98.71774296
2338,NbO2F,1.9508,9.79373760,9.79373760,9.79373760,145.64107896,133.47261587,59.10100800
2339,LiPrS2,1.9663,8.03519306,10.66086197,7.00337784,29.16206498,55.02614457,41.09837319
2340,In(HO)3,1.9491,6.96447000,6.99805377,7.00546163,108.71913778,112.38710370,106.86944069
2341,NaMo6Br13,1.9759,9.59774700,9.74392106,14.93094209,96.72876191,101.50827039,115.40017524
2342,As2Pb14Cl4O17,1.9593000000000003,13.19017083,13.19017083,11.50358125,76.55109875,76.55109875,121.34357819
2343,Tm10Ti6O27,1.9543999999999997,7.24676479,7.24676479,23.96132633,81.83883706,81.83883706,59.97163853
2344,K6Ba2CaU6O24,1.9675000000000002,7.55616374,7.55616374,24.68279900,90.00000000,90.00000000,109.47813298
2345,Na9Sr2La9Ti20O60,1.9492000000000003,5.52198137,5.52080521,55.20974822,60.09111154,60.05716681,60.11486556
2346,Mo(PO3)4,1.9517,7.30923601,7.30923601,10.37702339,65.68211746,65.68211746,69.80500409
2347,VP(H2O3)2,1.9535,9.98106700,5.33993000,10.19467525,60.02821686,90.00000000,90.00000000
2348,MnH8(N2Cl)2,1.9638000000000002,6.08271274,6.08271274,4.34069785,79.31684903,79.31684903,83.16384301
2349,BaLa3TiCr3O12,1.9643000000000006,11.17721600,5.60077600,7.92704114,89.40242338,90.00000000,90.00000000
2350,LiVP2O7,1.9606999999999999,6.46063200,9.33179263,10.62864926,114.76725658,85.89362404,106.94610783
2351,V(PO3)3,1.9532999999999998,9.42668100,9.43119232,9.67667055,109.33487048,104.33726354,108.84794087
2352,HgF,1.9778000000000002,6.14232147,6.14232147,6.14232147,143.55458241,143.55458241,52.49387048
2353,Na2Ca17V2(PO4)14,1.9592999999999998,10.44062600,13.86182171,18.08228590,102.57720951,90.01648947,112.05207944
2354,Ru3C10I2O9,1.9631000000000003,8.42598900,9.37480500,24.18160200,90.00000000,90.00000000,90.00000000
2355,YH16C4N9O16,1.9553,11.38965762,11.38965762,6.48252288,86.74301849,86.74301849,143.82845251
2356,Li3P11(H3N)17,1.9667999999999999,11.99024100,12.58411455,12.59736594,89.96228250,99.86720354,99.64926506
2357,Ba3As2H14S8O7,1.9766000000000001,12.90625200,12.75455500,16.81156713,49.48878725,90.00000000,90.00000000
2358,Sb2S19F12,1.9715999999999998,13.66747700,14.83957500,15.91311694,74.64195265,90.00000000,90.00000000
2359,UH16C4(NO3)4,1.9706,14.81246100,8.00305200,12.21046418,82.65792724,90.00000000,90.00000000
2360,K2V3P4H4O19,1.9763,8.73170100,9.30987132,10.79081540,89.95843241,113.31796036,90.32774925
2361,CoH8(ClO2)2,1.962,10.37952800,6.02168900,12.29002556,83.44878456,90.00000000,90.00000000
2362,TaCrO4,1.9512,4.50064300,11.95069600,5.03035400,89.99993227,89.99985528,89.99997289
2363,Mn(AsO2)2,1.9687999999999999,5.86965100,8.74859200,8.74870000,89.99979043,89.99996738,89.99994131
2364,VO2F,1.9771999999999998,5.17387682,5.17387682,13.00701200,90.00000000,90.00000000,120.00001050
2365,CeHfO4,1.9620999999999995,6.57698744,6.57698744,5.24155039,69.16979257,69.16979257,114.09373310
2366,LiVH2OF5,1.9589,5.71229124,5.71229124,7.77117083,86.29094817,86.29094817,68.90895369
2367,Li2VF6,1.9721,5.81696147,5.81696147,4.74410763,74.72702805,74.72702805,55.16176507
2368,Li2AgF3,1.9647999999999999,2.94185800,7.61015000,12.81001300,90.00000000,90.00000000,90.00000000
2369,Fe2C2O7,1.9735,4.95307000,4.96091072,16.01251747,89.70219298,90.61986140,119.89910509
2370,LiFeP2O7,1.9551999999999998,6.27873600,6.70797660,7.08641448,75.44267553,65.08852982,81.03527078
2371,LiVF3,1.9760000000000002,5.85793789,5.85793789,5.89149100,90.00000000,90.00000000,119.99999881
2372,Li2Ti2FeO6,1.9789000000000003,5.22078897,5.22076632,10.41042009,90.01370469,89.98742914,120.67932206
2373,LiFe2(BO3)2,1.9744,5.27765381,5.27765381,10.05598758,89.85802626,89.85802626,120.02574440
2374,Li4Ni3Sn(PO4)4,1.9733,4.79991092,12.24479421,12.08851434,60.42930323,90.02583761,90.77301979
2375,Li2CuPO4,1.9705000000000004,4.90534600,5.33748200,6.87832446,87.78992007,90.00000000,90.00000000
2376,Li6NiOF6,1.9476,7.17308732,7.17366877,10.65597807,102.73672116,90.66144402,67.69781487
2377,Mg11Mn2O13,1.9588999999999999,5.26696711,19.97259062,5.26696711,97.57678959,70.46645065,92.52680621
2378,LiVPHO5,1.9686999999999997,5.17156152,7.52205007,10.37038935,77.33290818,98.73938381,74.06614071
2379,Sn3(OF)2,1.9510999999999998,5.60870600,6.77376200,15.53271000,90.00000000,90.00000000,90.00000000
2380,Li8MnO5F,1.9777,5.36828785,18.24055542,6.00576040,96.64440769,112.04898689,86.63900979
2381,CeTh3O8,1.9588999999999999,6.83754711,6.83754711,3.94870100,90.00000000,90.00000000,109.47496995
2382,Li2CrFeO4,1.9564999999999997,5.17754600,5.95293598,7.86960203,100.85911503,96.33716516,106.83375612
2383,LiFe3(OF3)2,1.9677,4.70176600,5.60518800,10.38468008,84.39010532,90.00000000,90.00000000
2384,Hg2W2O7,1.9785,3.87525600,6.29007600,14.88594707,74.75203357,90.00000000,90.00000000
2385,Na6MgO4,1.9733999999999998,7.49596800,7.49596800,5.50849100,90.00000000,90.00000000,90.00000000
2386,Ta2Mn2O7,1.9730999999999996,7.32981091,7.32981091,7.32981091,90.00000000,60.00000000,120.00000000
2387,VSb(PO4)2,1.975,5.06594231,10.99818434,5.93967300,89.99990369,90.00069005,97.42734877
2388,Zr2N2O,1.9501,5.52936100,5.57643377,10.32857239,75.46685797,74.92567409,60.66498797
2389,VO2F,1.9751999999999998,5.06342800,5.11344300,8.42538200,90.00000000,90.00000000,90.00000000
2390,CeHfO4,1.9766000000000004,6.60674302,6.60674302,6.60674302,132.58705588,132.58705588,69.30340137
2391,LiVAsCO7,1.9701,8.46752571,8.46871734,10.24092404,108.71499451,108.69307287,98.80397891
2392,Cd(CoO2)2,1.9565999999999995,5.98218277,5.98218277,5.98218277,60.00000000,60.00000000,60.00000000
2393,LaMgI5,1.9731999999999998,7.87756165,7.87756165,17.47629800,90.00000000,90.00000000,147.85827534
2394,LiMnBO3,1.9731,6.44040800,8.29867826,8.29197346,59.98768628,90.00060041,90.00049840
2395,Li7Fe7SiO16,1.9546999999999999,5.11247600,5.55750613,13.08362944,89.91953596,89.92709074,89.87543907
2396,LiV(CO3)2,1.9696,8.04904125,8.04904125,5.36848271,89.95011747,89.95011747,59.74436188
2397,Li3Fe(PO4)2,1.9460000000000002,9.92432700,8.58348800,16.48282546,64.46916774,90.00000000,90.00000000
2398,Li5AuO4,1.9587999999999997,10.30318479,10.05455658,4.78016714,79.33560541,73.53915055,27.12524404
2399,Ca3In2O6,1.9618000000000002,3.26227700,11.04978100,16.75838900,90.00000000,90.00000000,90.00000000
2400,Li6V3Cr(PO4)6,1.9505000000000003,8.61660100,8.64386265,8.65312243,61.35678205,61.28622796,61.27926151
2401,SbH5(Cl3O)2,1.9558,7.10529266,7.10529266,13.60150110,69.38830935,69.38830935,61.17949854
2402,LiFeCO4,1.962,8.34128789,8.34128789,6.08252700,90.00000000,90.00000000,121.25304726
2403,Li4V7(PO4)6,1.9619,9.04226663,9.04226663,6.65955188,81.57107886,81.57107886,104.61118815
2404,LiV(CO3)2,1.9552,7.38997268,7.38817749,7.66993371,90.84942474,89.16052075,73.29160149
2405,SbOF3,1.9494,9.31185000,9.31185000,3.77577800,90.00000000,90.00000000,90.00000000
2406,Li3VO3F,1.9668,5.16636937,9.71413406,5.84930646,87.29045034,88.63935984,80.68878957
2407,Li2NbCr3O8,1.9498000000000002,5.98706700,5.98713828,9.62720700,89.99987883,90.00013117,120.00064783
2408,Li2CrSiO4,1.9759999999999995,11.31630000,5.22721000,7.83717198,51.22305260,90.00000000,90.00000000
2409,Li3V4P2O8F9,1.9562000000000002,14.59025200,7.04601600,7.42062104,75.50275243,90.00000000,90.00000000
2410,Li2Fe3P5O18,1.956,13.07149486,13.07149486,12.56987822,88.26906917,88.26906917,21.79129468
2411,Li4Co3OF8,1.9491,5.09640460,5.09640460,11.51812734,78.61348342,78.61348342,32.66027830
2412,Li7VO5F,1.9464,5.37788551,5.92125666,5.40291613,117.24069160,119.26166182,63.11301066
2413,As3H12C4S5N,1.9453,9.76401300,10.67442544,14.32658152,91.35933914,98.89787496,92.23695229
2414,Li6V2O5F2,1.9639000000000002,5.95996500,5.20524600,10.11934469,70.30715719,90.00000000,90.00000000
2415,Ni17(As3O16)2,1.9753999999999996,9.92813784,6.02749888,10.37060661,90.00000353,69.48742357,90.00000117
2416,Li4Ti15O32,1.9459000000000002,19.68046305,19.68046305,19.68046242,17.47135166,17.47135166,17.47135368
2417,LiVF4,1.9744,7.87771100,7.98148487,7.98276922,97.00011571,97.95846584,97.84519494
2418,Li2V(OF)2,1.9744000000000002,5.08035788,5.90054800,9.79360326,90.00080231,80.44345863,90.00069705
2419,SrLiVPO6,1.9499000000000004,10.84009200,5.42075400,8.36719532,89.76177578,90.00000000,90.00000000
2420,Ta2MnO6,1.9697999999999998,7.57045160,7.57045160,15.55375318,89.36287667,89.36287667,100.84728638
2421,CeTh9O20,1.9612999999999996,6.86409000,7.92382882,8.85943448,102.92325816,97.42290973,106.77408312