,pretty_formula,bandgap,cell_length_a,cell_lentgh_b,cell_lentgh_c,cell_angle_alpha,cell_angle_beta,cell_angle_gamma
1215,U2Si(H2O5)2,1.8967999999999998,11.08199992,10.30538846,7.03788492,76.88177476,64.91150620,38.20671904
1216,LiNd2HO3,1.8753999999999995,6.84735122,6.84735122,6.84735122,150.34397998,148.50805223,43.80290311
1217,H8Pt(NCl3)2,1.896,7.07964502,7.07964502,7.07964502,60.00000000,60.00000000,60.00000000
1218,CrCoH18(CN2)6,1.8811,7.41601104,7.41601104,7.41601097,97.23595281,97.23595281,97.23594315
1219,VPO5,1.9020000000000001,6.23485900,7.23894600,7.81434100,90.00000000,90.00000000,90.00000000
1220,LiVP2O7,1.8807999999999998,6.47321892,6.47917985,12.39873903,75.84034137,75.85312868,79.61991250
1221,Li3Cr3(PO4)4,1.9048,7.95772600,7.57061500,10.12537269,86.27121445,90.00000000,90.00000000
1222,Li3Cr2(PO4)3,1.8990000000000005,4.85386667,4.85386667,18.74240443,89.63627527,89.63627527,66.40846776
1223,SbN3Cl4,1.889,9.80845100,8.48077200,13.17130417,53.57123009,90.00000000,90.00000000
1224,NaIO4,1.8872999999999998,7.19647354,7.19647354,7.19647354,135.63737305,135.63737305,64.54146313
1225,BaMn2O8,1.8947,9.71322174,8.44444409,7.14540036,76.57468598,57.73833105,45.68698296
1226,BiF5,1.9042999999999999,5.35329768,5.35329768,5.35329768,99.52333245,99.52333245,131.99775822
1227,Tl2PtCl6,1.8868,7.14782001,7.14782001,7.14782001,60.00000000,60.00000000,60.00000000
1228,K2PdF4,1.9075000000000002,5.82813216,5.82813216,4.32743652,87.47464413,87.47464413,62.45444265
1229,Rb3Sb2Br9,1.9050999999999998,8.05060883,8.05060883,9.77617900,90.00000000,90.00000000,120.00000680
1230,KCuS,1.8822,5.31486300,6.29872400,10.71625300,90.00000000,90.00000000,90.00000000
1231,H4I3N,1.9038999999999997,6.83542600,9.89663700,10.88486700,90.00000000,90.00000000,90.00000000
1232,Sb7Se8F35,1.9007,13.91439200,11.41959200,15.91966876,47.74821003,90.00000000,90.00000000
1233,Pt(SCl4)2,1.9063999999999999,7.49163100,6.76494000,13.04422737,79.53100382,90.00000000,90.00000000
1234,CrXeF6,1.9084000000000003,7.43378300,8.06839400,12.91510266,52.43740253,90.00000000,90.00000000
1235,Ba9(AuO6)2,1.8840999999999999,7.23924400,14.40459600,17.49547600,90.00000000,90.00000000,90.00000000
1236,Cd4OF6,1.9005,7.64547900,7.64547900,5.52306900,90.00000000,90.00000000,90.00000000
1237,UO3,1.8868,11.24380452,11.24380452,11.24380452,143.84134246,143.84134246,52.06460685
1238,AlTeI7,1.8899000000000001,7.48030400,7.75886000,16.86105845,75.37986125,90.00000000,90.00000000
1239,Na3TlO2,1.8851,5.41190700,6.81945200,11.65283000,90.00000000,90.00000000,90.00000000
1240,GaTeI7,1.8822,7.43582200,7.70189500,16.97928699,75.21532106,90.00000000,90.00000000
1241,RuS3Cl8,1.8975,8.18314500,8.40546757,11.21327152,104.25385499,98.87386433,108.69477483
1242,Rb2Cd3Te4,1.9082,10.79493031,10.79493031,13.22769839,72.47418142,72.47418142,93.16695908
1243,VRe2O9,1.8881000000000001,8.14202798,8.14202798,9.17985200,90.00000000,90.00000000,138.78408524
1244,K2PSe3,1.9047,12.61524100,8.95022800,14.05898715,88.75458666,90.00000000,90.00000000
1245,Sr4Re2NiO12,1.8777000000000004,9.60657907,11.18721570,9.68842085,90.00002772,99.67648140,106.92579891
1246,Sr3Ti2O7,1.8757999999999995,10.62778174,10.62778174,10.62778174,158.63039751,158.63039751,30.40171402
1247,Sr(LaSe2)2,1.8829000000000002,7.94509264,7.94509264,7.94509264,109.43939285,109.43939285,109.53489497
1248,Li2MnCl4,1.8782,7.45027730,7.45027730,7.45027730,119.44026890,119.28685868,91.10597092
1249,Zn(GaS2)2,1.8996999999999997,6.57844840,6.57844840,6.57844840,133.05512002,133.05512002,68.56759844
1250,Ba2TiO4,1.8813999999999997,3.98205300,3.98205300,8.78815100,90.00000000,90.00000000,90.00000000
1251,CeThO4,1.8870000000000005,3.92036300,3.92036300,5.54231100,90.00000000,90.00000000,90.00000000
1252,Pr2CdS4,1.8821999999999997,7.49654631,7.49654631,7.49654631,110.79182760,110.79182760,106.86111475
1253,MgV3O8,1.9053,8.68544600,7.84791100,10.56447843,60.12049290,90.00000000,90.00000000
1254,Sr(NdSe2)2,1.8985999999999996,7.85567347,7.85567347,7.85567347,109.45450113,109.45450113,109.50466482
1255,Fe3H10S2NO14,1.8819,7.29690697,7.29690697,7.29690671,61.32429384,61.32429384,61.32429012
1256,Rb2Te,1.8947,6.08732247,6.08732247,6.08732247,60.00000000,60.00000000,60.00000000
1257,GeO2,1.9071999999999996,4.48424700,4.48424700,2.90798600,90.00000000,90.00000000,90.00000000
1258,La3ReO8,1.8730000000000002,6.32781100,7.60853800,7.61753075,69.84624210,90.00000000,90.00000000
1259,Rb2Na3InO4,1.9036000000000002,7.55826100,9.78400500,9.90869100,90.00000000,90.00000000,90.00000000
1260,La3CuSnS7,1.8996999999999993,10.35529342,10.35529342,6.10528300,90.00000000,90.00000000,119.99999631
1261,FeHO2,1.8729,3.06009100,4.48451200,5.04316300,90.00000000,90.00000000,90.00000000
1262,CrPbO4,1.8820999999999999,5.87403500,7.73412600,8.30384600,90.00000000,90.00000000,90.00000000
1263,Hg9(PO4)4,1.8834,10.39894170,10.39894170,10.39894093,108.46393720,108.46393720,108.46393568
1264,SeN,1.8845,7.90360600,9.24748300,12.95086306,48.10623466,90.00000000,90.00000000
1265,K2Cr4O13,1.884,7.70193900,8.94250200,9.55354657,87.49509459,90.00000000,90.00000000
1266,Ba2BiSbO6,1.8876,6.13254337,6.13254337,6.13254337,60.00000000,60.00000000,60.00000000
1267,Ba2Fe2Se2OF2,1.8885000000000005,4.26583749,4.26571510,19.94658516,89.99747917,89.99713969,90.00067607
1268,H6RuN3Cl3O,1.8942,11.64596300,6.79399400,11.36165593,60.96686478,90.00000000,90.00000000
1269,K3Na2InO4,1.9080000000000001,9.81555600,7.35206400,12.54969766,54.98890173,90.00000000,90.00000000
1270,Na2UO4,1.8756,3.52553300,5.76803000,9.90968800,90.00000000,90.00000000,90.00000000
1271,KVSO6,1.8755,5.55845000,8.64061800,11.26552100,90.00000000,90.00000000,90.00000000
1272,Ba2Sb4P2O17,1.8778000000000001,7.31108000,9.68854500,21.31115900,90.00000000,90.00000000,90.00000000
1273,TeS4(NCl)4,1.9067,9.23679831,9.23679831,7.59835594,81.63160190,81.63160190,84.24164912
1274,Pr8Sb2S15,1.8916,15.01010113,15.01010113,15.01010113,116.37616551,116.37616551,96.40034600
1275,CdGe(BiO3)2,1.9026,5.70901700,10.35137500,10.58609900,90.00000000,90.00000000,90.00000000
1276,TeAs(IF2)3,1.8929,11.01216500,8.46292300,13.04672555,78.98862562,90.00000000,90.00000000
1277,Rb2Pd(NO3)4,1.8948,8.17163900,8.03707700,9.97541411,79.68347948,90.00000000,90.00000000
1278,BaMo2P3O14,1.8885999999999998,8.33156914,8.33156914,8.79983167,82.31182607,82.31182607,72.73367091
1279,K6NaAu2IO8,1.8902999999999999,9.97793400,7.17724500,12.14657518,57.10189490,90.00000000,90.00000000
1280,Sr6Li2Cr2N8O,1.8768000000000002,6.21138600,6.87008165,7.60088734,82.29921121,75.07817667,69.95756503
1281,Si(Sn3O4)2,1.8998,7.42411012,7.42411012,12.06039400,90.00000000,90.00000000,120.00000108
1282,LiUBO5,1.9059000000000001,10.69218300,5.90077900,6.87387644,75.05821537,90.00000000,90.00000000
1283,CaV2(PO5)2,1.8735,9.96072795,8.82580855,6.92945479,77.39341821,59.84837324,42.75820855
1284,Tc2O5F4,1.8738,15.40852000,5.48703100,8.63694724,89.57176433,90.00000000,90.00000000
1285,K2Pd(NO3)4,1.9066999999999998,15.92584100,8.13887200,9.67561826,88.66603015,90.00000000,90.00000000
1286,ZnS,1.9071,3.85308879,3.85308879,31.51255600,90.00000000,90.00000000,120.00001352
1287,LiFe2F6,1.8873,4.75622000,4.75622000,9.41684100,90.00000000,90.00000000,90.00000000
1288,RbV2CrO7,1.8911,4.95567100,6.98556965,8.67038623,101.24543251,90.00000000,90.00000000
1289,Si2Mo4P6O25,1.8843,14.87211441,14.87211441,8.00532000,90.00000000,90.00000000,120.00000180
1290,V2Ge(O2F)2,1.8780000000000001,4.97762600,9.14849700,9.50379200,90.00000000,90.00000000,90.00000000
1291,AsS4N4F5,1.8969,10.66100600,7.94344700,12.78974522,69.08562348,90.00000000,90.00000000
1292,K5Au(IO)2,1.8820000000000001,5.60007300,7.34781300,14.26065600,90.00000000,90.00000000,90.00000000
1293,AgHgSI,1.8966,4.68547400,10.16108300,10.37088400,90.00000000,90.00000000,90.00000000
1294,Hg3Se4O5,1.8769,7.90841800,7.94516704,9.50479688,94.33465079,110.38511507,107.11407562
1295,PbWO4,1.8744999999999998,5.84351800,7.91701800,7.98959932,74.74560712,90.00000000,90.00000000
1296,Dy3CuGeS7,1.8765999999999998,9.88426784,9.88426784,5.81478900,90.00000000,90.00000000,119.99999892
1297,AlSBr3N,1.8891999999999998,10.84219600,7.55275300,10.22440750,67.55251368,90.00000000,90.00000000
1298,CS5N5O3F,1.8881,7.34429200,8.39505282,8.97647813,96.81839270,92.58770757,106.80405512
1299,Er3CuSiS7,1.8931999999999993,9.80957958,9.80957958,5.69736700,90.00000000,90.00000000,119.99999719
1300,VPO5,1.8871000000000002,6.24646800,6.24646800,4.56405400,90.00000000,90.00000000,90.00000000
1301,NaNbO3,1.8832999999999998,4.04094934,4.04094934,15.95675700,90.00000000,90.00000000,90.47144013
1302,Fe2Te2W(CO)10,1.8991,7.35932300,9.82437056,14.23757463,81.77250178,83.13448378,85.59705877
1303,LiV(SiO3)2,1.8729000000000005,8.75849700,5.36757800,9.40609768,77.18277017,90.00000000,90.00000000
1304,LiV3(TeO6)2,1.8878000000000001,6.30189400,7.24644170,10.80606882,91.42453925,93.23646218,104.89916714
1305,K2ZrS4,1.8944999999999999,6.80780600,9.57239300,23.55265300,90.00000000,90.00000000,90.00000000
1306,K2U2WO10,1.8912,29.13646800,8.37314100,10.93894422,55.37896732,90.00000000,90.00000000
1307,Pb13(Cl3O5)2,1.8956000000000004,8.91626592,8.91626592,23.79500535,82.75094823,82.75094823,46.83216562
1308,Hg2PO3F,1.8889,9.02679102,9.02679102,9.02679102,121.27639100,115.62858838,92.76831078
1309,Rb3Zr2P5S18,1.8916000000000002,6.96110469,6.96110469,34.12899508,86.31667304,86.31667304,93.06736585
1310,Ba4CeMn3O12,1.8752999999999997,10.32576580,10.32576580,10.32576641,33.13734107,33.13734107,33.13734224
1311,Cs2U3(TeO7)2,1.879,7.04113300,7.81429030,8.74638090,111.70429619,99.77602814,98.73059142
1312,SrCo2Te3(ClO4)2,1.8987000000000003,9.17720500,6.70654800,19.46544207,74.18326752,90.00000000,90.00000000
1313,AlSeBr3N,1.8937,10.85784900,7.68470900,10.35535881,66.87216825,90.00000000,90.00000000
1314,SiC,1.8873999999999995,3.09567458,3.09567458,20.24825100,90.00000000,90.00000000,120.00001248
1315,Hg2C(NCl)2,1.8761999999999999,9.16466300,8.26383100,8.41511016,72.73629702,90.00000000,90.00000000
1316,SiC,1.8735,3.09446003,3.09446003,12.66203500,90.00000000,90.00000000,120.00000054
1317,P3NCl12,1.9049999999999998,21.76179400,12.17217800,14.93526490,73.66554601,90.00000000,90.00000000
1318,Sr2IN,1.8824999999999994,8.16267933,8.16267933,8.16267934,28.58912175,28.58912175,28.58912397
1319,SiC,1.9048999999999996,3.09470959,3.09470959,68.33205400,90.00000000,90.00000000,119.99999116
1320,KY(PSe3)2,1.8830999999999998,6.84903500,7.55025400,21.87113800,90.00000000,90.00000000,90.00000000
1321,TaP2Se2Cl5,1.9,14.05919800,6.91207600,27.97961395,79.67745644,90.00000000,90.00000000
1322,AlAgS2,1.8992,6.63981528,6.63981528,6.63981528,128.62608898,128.62608898,75.61296092
1323,Li2MgMn3O8,1.8907,8.32995200,8.32995200,8.32995200,90.00000000,90.00000000,90.00000000
1324,ZnS,1.8885,3.85326939,3.85326939,125.91018500,90.00000000,90.00000000,119.99998948
1325,CaTiO3,1.8908999999999998,3.88947100,3.88947100,3.88947100,90.00000000,90.00000000,90.00000000
1326,NaMgAs,1.8747000000000003,4.42298100,4.42298100,7.19829500,90.00000000,90.00000000,90.00000000
1327,FeHC2O3,1.8787999999999998,10.19612200,3.39311400,8.79410421,77.62880217,90.00000000,90.00000000
1328,CoH32C8S4(NO5)2,1.9049999999999998,11.02975300,9.95632400,12.69421526,55.81639394,90.00000000,90.00000000
1329,NaFe3H6(SO7)2,1.8958,7.03275443,7.03275443,7.03275465,63.59791621,63.59791621,63.59791594
1330,S4N5Cl,1.8906,5.06448900,8.07223000,18.21841800,90.00000000,90.00000000,90.00000000
1331,RhSe2Cl7,1.8899,14.34457600,8.21869400,12.37903767,83.58769997,90.00000000,90.00000000
1332,Sr3BCNCl2,1.8786999999999998,4.08981200,11.78330900,14.68718700,90.00000000,90.00000000,90.00000000
1333,Cs5Nb2S4Cl9,1.8828,10.51399825,10.51399825,10.51399825,138.81870434,120.05458792,75.31795779
1334,Gd4Au2O9,1.8748999999999998,6.02102200,11.89697400,11.91201800,90.00000000,90.00000000,90.00000000
1335,U(HO2)2,1.8970999999999998,5.42213800,6.02181800,10.14415400,90.00000000,90.00000000,90.00000000
1336,U3(HO5)2,1.8952,5.57022300,5.89859720,7.38701840,73.61258278,72.11225835,73.19260454
1337,U(HO2)2,1.9006999999999998,5.31809200,5.49119100,6.10781221,70.81202596,90.00000000,90.00000000
1338,Ba4Na(SbO4)3,1.8954,7.28599643,7.28599643,7.28599643,109.47122063,109.47122063,109.47122063
1339,KHgC3(SN)3,1.8915000000000002,4.17010000,11.39881600,11.45731731,64.39245020,90.00000000,90.00000000
1340,Li3Fe2(PO4)3,1.8734,8.74862300,8.71543200,15.03112278,54.75206409,90.00000000,90.00000000
1341,Al3Bi5Cl12,1.8969000000000003,12.39868579,12.39868579,12.39868591,58.10472129,58.10472129,58.10472426
1342,Hf(TeCl6)2,1.885,26.72795387,26.72795407,26.72795458,27.37490181,27.37490100,27.37490107
1343,Tl2GePbS4,1.9,9.24236700,9.05353400,10.66282604,85.81213964,90.00000000,90.00000000
1344,Os4C13(SO6)2,1.8984999999999999,7.72664200,10.12924474,14.97611505,95.65127545,92.91010666,108.77866312
1345,KHgSbS3,1.8725999999999998,6.43663874,6.43663874,17.62289384,79.66283102,79.66283102,90.74581870
1346,Ba2CaWN4,1.88,10.87968981,10.56941814,8.16401349,69.65656209,65.62808296,44.71535495
1347,HgS4(NCl)3,1.8919,17.72675500,6.37405500,10.01621688,73.28094350,90.00000000,90.00000000
1348,Tb2S3,1.8965000000000005,13.81356995,13.81356995,13.81356995,144.82528675,144.82528675,50.59496331
1349,RbAl3Cd(SiO4)3,1.8815,12.29791000,12.32493278,12.39028007,89.36473968,89.61907905,89.79000993
1350,CsRe3(S2Br)2,1.8816000000000002,18.92505100,6.47086800,10.14817408,65.75251661,90.00000000,90.00000000
1351,AgI,1.9047,4.65559892,4.65559892,4.65559892,118.09274768,118.09274768,93.33647444
1352,NaSr2LaTi4O12,1.8930999999999996,5.53073800,5.53073800,23.62070800,90.00000000,90.00000000,90.00000000
1353,MgTi3Pb5WO15,1.8829000000000002,5.68507100,5.68507100,19.88940300,90.00000000,90.00000000,90.00000000
1354,Li2TiFe(PO4)3,1.9054,8.79580500,8.64975300,14.75829285,54.45098316,90.00000000,90.00000000
1355,BaLa4TiCr4O15,1.8815999999999997,5.58076100,7.91895736,14.80623165,105.31937896,100.59767603,90.85967616
1356,NaLi2La3Ti6O18,1.8942999999999999,9.56658562,9.56658562,5.55830841,73.13269405,73.13269405,119.67412529
1357,Sr2La2MgTi3O12,1.8845,5.61870400,5.60398300,15.77035496,89.92109198,90.00000000,90.00000000
1358,VH7(CO2)4,1.8853,7.66733600,7.68819455,8.29587670,107.09044898,94.64031054,114.53301488
1359,Na2AlFeF7,1.8805,7.28553498,7.28553498,24.50285078,81.62184470,81.62184470,60.63196189
1360,Mn4C15S4O15,1.9025999999999998,15.69328400,9.42196100,18.42402356,84.08362091,90.00000000,90.00000000
1361,Mn2Fe3Sn2(CO)19,1.8867,9.63252905,11.41148679,27.92808147,90.00000000,96.04407994,90.00000000
1362,Nb12WO33,1.9071,3.87321100,11.56273664,15.35099545,83.62922623,82.78240042,80.44797136
1363,CrBi8O15,1.9015000000000004,12.07080100,9.80200500,14.06205420,76.07575345,90.00000000,90.00000000
1364,CrPb5O8,1.8820000000000006,11.98731100,11.97980800,15.14951986,88.90315870,90.00000000,90.00000000
1365,Mn2SnC10BrO10,1.9026,12.60528800,16.79421200,17.40415025,71.89535287,90.00000000,90.00000000
1366,KSn2H36C12(Se2N)3,1.8887,9.78492300,10.21831871,16.29655008,95.16547851,92.65954267,107.02632683
1367,H3PbS2N3,1.907,16.72274900,5.89749300,6.23977870,88.51463578,90.00000000,90.00000000
1368,CaU2Si2H12O17,1.887,7.05082400,6.72066700,16.07511649,82.27454744,90.00000000,90.00000000
1369,H2Os4Pt(CO)15,1.8919000000000001,8.97583100,13.46568300,20.51354993,89.13052865,90.00000000,90.00000000
1370,CoHO2,1.8818000000000001,3.03806348,3.03806348,8.87847800,90.00000000,90.00000000,119.99998864
1371,K3Mn3H2C12O13,1.8800000000000003,14.20910300,8.87079200,15.93311399,78.69374111,90.00000000,90.00000000
1372,V3OF11,1.8928000000000003,5.42948000,5.99007580,7.32589951,94.54921595,99.24876478,97.52179667
1373,Li3MnF6,1.8921999999999999,5.21428800,5.12000000,9.16624005,58.17981138,90.00000000,90.00000000
1374,Li2V2OF6,1.904,5.48294108,8.76891012,6.59695278,107.74380723,94.25579887,75.30544364
1375,Li5NiOF5,1.9047,2.90620746,5.81180397,12.40196500,90.00013755,90.00000653,89.99988847
1376,Li3V4(OF3)3,1.8902999999999999,5.95624900,5.97361452,6.08676356,99.09553969,99.68698386,99.65221060
1377,Li3CuS2,1.9039000000000001,8.19207602,8.19207602,8.19207602,122.36313470,122.36313470,85.95345405
1378,Li2MnOF3,1.8868,6.07552600,6.07551800,8.26603100,89.99984831,90.00022407,90.00008488
1379,V(SiO3)2,1.9012000000000002,7.05969947,7.29878887,14.08119905,95.94921669,86.56600439,76.64137978
1380,LiMn3OF5,1.8941000000000001,6.30375700,6.35821619,6.36016316,92.21342179,92.40817803,91.94154928
1381,Li2VFeO5,1.8911000000000002,6.64591400,6.64591400,4.63826100,90.00000000,90.00000000,90.00000000
1382,NbVO5,1.8923,5.63166200,7.11290100,12.14019100,90.00000000,90.00000000,90.00000000
1383,VSb3(PO4)4,1.9003999999999999,4.89385151,10.17102120,6.85555853,89.95998115,90.15569799,94.51696624
1384,Li3ZrNb(TeO6)2,1.9032999999999998,5.21592100,5.52569964,7.62222970,94.04543397,90.24559394,90.02761255
1385,CrSbO4,1.8790000000000004,3.12120400,5.06800600,5.34506819,69.54032752,90.00000000,90.00000000
1386,Li3Cr2FeO6,1.8848000000000003,6.65206538,6.65206538,5.94907499,76.99327028,76.99327028,25.81837323
1387,V4(OF3)3,1.8860999999999999,5.23140800,5.41658213,7.57439765,92.52076252,90.00114222,90.32683610
1388,TaVO4,1.8997000000000002,5.65313118,5.65314498,5.65314992,72.71363387,107.28598736,66.06408149
1389,Ce2Dy2O7,1.9072,3.84547200,3.84547200,10.87889700,90.00000000,90.00000000,90.00000000
1390,Ba2Ti6N2O11,1.8972000000000002,7.95663205,7.95663205,9.24111900,81.59884384,81.59884384,28.73505731
1391,Li4MnF7,1.9037000000000002,5.70130600,7.04174370,7.49359603,62.70096035,69.53204129,76.39096294
1392,Li5Cu(PO4)2,1.8950999999999998,6.21696400,4.97488600,5.30782536,89.64942203,90.00000000,90.00000000
1393,Ba2Ti6N2O11,1.8794,7.95460278,7.95460278,9.19408657,81.72700309,81.72700309,28.74894010
1394,LiMn2OF3,1.9013,5.26219000,10.70937500,6.35659500,90.00030303,89.99978295,89.99995682
1395,V4FeNiO12,1.9069999999999998,5.91264708,6.82716938,6.84180118,96.20583541,74.62734269,105.29469133
1396,Li3V2CrO6,1.8927999999999998,2.97338521,6.69573059,11.95391461,76.42549766,89.99223786,77.16893556
1397,Hg2P2H4O9,1.8868,7.04463600,7.54475643,8.10762811,84.91393930,75.12871583,73.57107620
1398,LiV(CO3)2,1.8985,8.72301431,8.72301431,8.72301431,107.25326991,107.25326991,114.00446564
1399,Li4CoSn3(PO4)4,1.9045999999999998,6.76970200,4.85562900,10.93427889,88.79380630,90.00000000,90.00000000
1400,MnOF,1.9084,4.53620600,5.70046500,5.17916400,90.00006334,90.00005845,90.00020156
1401,LiVF5,1.9058,9.80169000,5.20107100,7.63994933,70.08868613,90.00000000,90.00000000
1402,LiFeSiO4,1.8731,4.77948700,6.22272700,10.35446400,90.00000000,90.00000000,90.00000000
1403,Li2VCrP2(O4F)2,1.8744,5.21460600,7.34627603,14.97889863,93.86340375,92.41883165,108.41380970
1404,Li19Cr4P8O35F,1.9051999999999998,6.87957200,10.57014223,10.59276994,85.29282581,108.93925489,108.94233908
1405,Bi25BO39,1.8876,9.31736800,9.60600510,14.61983229,93.06054559,90.43215718,113.52584568
1406,V6O5F19,1.9015,5.36934100,5.50306503,15.13683008,100.29694800,89.94513745,90.68651650
1407,V2OF4,1.8764,4.92698817,6.86738258,5.71055409,102.07371464,90.01372942,68.99986529
1408,LiVF5,1.9073,7.90552600,9.40229200,13.36506457,51.41075117,90.00000000,90.00000000
1409,Li3VS4,1.8951,5.95542200,5.95542200,5.95542200,90.00000000,90.00000000,90.00000000
1410,Rb3InO3,1.8955000000000002,7.10680400,7.16082700,14.84019092,61.70065131,90.00000000,90.00000000
1411,V3OF11,1.9062000000000001,5.27528500,5.44221300,14.59581872,79.54924043,90.00000000,90.00000000
1412,Li3La5Ti6Nb2O26,1.8940999999999995,5.53364800,5.53132100,17.25704310,81.00039769,90.00000000,90.00000000
1413,LiMnF4,1.8855,4.62702400,5.11081100,11.35929600,90.00000000,90.00000000,90.00000000
1414,LiVF5,1.9036,5.30026829,5.30026829,7.61042629,68.79685356,68.79685356,74.21870030
1415,LiV(CO3)2,1.8887999999999998,6.05864022,6.05864022,6.05863970,45.31456246,45.31456246,45.31456430
1416,Nb2CoO6,1.8998,4.82910201,10.39951891,9.65930110,62.34460947,90.00166628,90.00826420
1417,V2OF5,1.8937,8.55196617,8.55196617,4.62184800,90.00000000,90.00000000,120.00000128