,pretty_formula,bandgap,cell_length_a,cell_lentgh_b,cell_lentgh_c,cell_angle_alpha,cell_angle_beta,cell_angle_gamma
5513,Li2MoP4O13,2.216,5.31892900,8.21649169,13.66866371,94.42274520,94.62346968,99.76724483
5514,K3GaBr6,2.2064000000000004,8.01549377,8.01549377,8.01549377,60.00000000,60.00000000,60.00000000
5515,K3AsI6,2.1942000000000004,8.79645078,8.79645078,8.79645078,60.00000000,60.00000000,60.00000000
5516,K2NaScI6,2.1959999999999997,8.50677035,8.50677035,8.50677035,60.00000000,60.00000000,60.00000000
5517,K2DyAuCl6,2.2180999999999997,7.59314738,7.59314738,7.59314738,60.00000000,60.00000000,60.00000000
5518,K2ScAgI6,2.1951,8.37011631,8.37011631,8.37011631,60.00000000,60.00000000,60.00000000
5519,Cs2TlBiCl6,2.2076000000000002,8.18976307,8.18976307,8.18976307,60.00000000,60.00000000,60.00000000
5520,Cs2NaScI6,2.2218,8.60345306,8.60345306,8.60345306,60.00000000,60.00000000,60.00000000
5521,K2AgSbF6,2.2199,6.53201486,6.53201486,6.53201486,60.00000000,60.00000000,60.00000000
5522,Cs2TbAuCl6,2.2022000000000004,7.70247033,7.70247033,7.70247033,60.00000000,60.00000000,60.00000000
5523,Cs2ScAgI6,2.2098999999999998,8.45048041,8.45048041,8.45048041,60.00000000,60.00000000,60.00000000
5524,Cs2PrAuCl6,2.2164,7.83267697,7.83267697,7.83267697,60.00000000,60.00000000,60.00000000
5525,Cs2NdAuCl6,2.2249,7.80429936,7.80429936,7.80429936,60.00000000,60.00000000,60.00000000
5526,Cs2LaCuCl6,2.2036000000000002,7.60866696,7.60866696,7.60866696,60.00000000,60.00000000,60.00000000
5527,Rb2ScAgI6,2.192,8.40048937,8.40048937,8.40048937,60.00000000,60.00000000,60.00000000
5528,Rb2TbAuCl6,2.2289,7.64228564,7.64228564,7.64228564,60.00000000,60.00000000,60.00000000
5529,Rb2DyAuCl6,2.2051,7.62768389,7.62768389,7.62768389,60.00000000,60.00000000,60.00000000
5530,Rb3RhF6,2.226,6.57917039,6.57917039,6.57917039,60.00000000,60.00000000,60.00000000
5531,Rb2NaScI6,2.2024999999999997,8.54573476,8.54573476,8.54573476,60.00000000,60.00000000,60.00000000
5532,Ba2NbBiO6,2.1946,6.13304621,6.13304621,6.13304645,60.36925716,60.36925716,60.36924851
5533,Nd2HgO4,2.223,7.27161057,7.27161057,10.35511088,60.20292797,60.20292797,30.65006109
5534,Nb4Pb3O13,2.2294,7.57428900,7.59411700,10.73317900,90.00000000,90.00000000,90.00000000
5535,Na2Al2Si3(HO3)4,2.21,7.46116100,9.49047185,9.99469701,117.63907806,90.28030894,95.55656341
5536,LiCoBO3,2.2305,8.23062446,8.23062446,3.11159100,90.00000000,90.00000000,120.00000367
5537,LiCrPO4,2.1995000000000005,5.00991815,9.46578234,6.45175864,90.05998960,89.97239781,90.00216094
5538,Li6VCr3(PO4)6,2.2110000000000003,8.59949000,8.61234957,8.62106286,61.30510685,61.09031901,61.27077750
5539,Li3V(PO4)2,2.2285,9.95426700,8.63753100,16.33244541,64.72983172,90.00000000,90.00000000
5540,Li3MnFeCo(PO4)3,2.2157,10.45616453,6.08520828,14.28809414,90.00000000,89.91076433,90.00000000
5541,Li2FeCoO4,2.2220000000000004,5.75900692,5.75900692,5.79793937,60.69100233,60.69100233,90.12304102
5542,Gd2W2O9,2.2162,9.85529570,9.85529570,7.25140700,90.00000000,90.00000000,105.71413996
5543,CsAsO3,2.1939,5.04143767,5.04143767,9.99409300,90.00000000,90.00000000,119.99999569
5544,Fe2OF2,2.1958,5.48566893,5.48566893,14.27973973,89.98405396,89.98405396,58.50056592
5545,Sr(AsO4)2,2.2046,6.51321600,7.62865374,8.05706256,111.96562096,110.74092004,98.80452228
5546,Mo2H2O7,2.2249,3.78006100,7.51951800,9.63562576,74.83335617,90.00000000,90.00000000
5547,K2Pt(NO2)4,2.2285000000000004,13.69265900,7.96940400,9.89017112,84.78161597,90.00000000,90.00000000
5548,GeTe,2.2036000000000002,9.90723373,9.90723373,5.94973425,77.45903181,77.45903181,84.97400612
5549,HoErO3,2.2123999999999997,4.24639500,4.24639500,4.24639500,90.00000000,90.00000000,90.00000000
5550,TbErO3,2.2006,4.24976000,4.24976000,4.24976000,90.00000000,90.00000000,90.00000000
5551,Ca3UO6,2.2026,5.98232900,5.76153900,8.37781533,89.54831435,90.00000000,90.00000000
5552,LiInS2,2.1961000000000004,6.55523500,7.01609300,8.15549900,90.00000000,90.00000000,90.00000000
5553,P2S3,2.214,10.93797200,6.92129100,7.31270243,89.28371970,90.00000000,90.00000000
5554,NaSm3GeS7,2.2103,10.14977972,10.14977972,5.87283400,90.00000000,90.00000000,119.99999818
5555,Nd4FeS6O,2.2232000000000003,9.37577720,9.37577720,6.74455000,90.00000000,90.00000000,119.99999433
5556,Pr3AsS5Cl2,2.1945,11.63505554,11.63505554,7.11403942,81.58989843,81.58989843,34.95571447
5557,La3BeAlS7,2.1947,10.21682029,10.21682029,5.93516700,90.00000000,90.00000000,120.00000187
5558,BaYZn3GaO7,2.2037,6.43487902,6.43487902,10.39218100,90.00000000,90.00000000,120.00001052
5559,MgVAgO4,2.2107,5.39778500,6.81654600,9.57968500,90.00000000,90.00000000,90.00000000
5560,Ba2U(PO5)2,2.1981,6.84068100,8.80010645,9.17649618,105.20768523,93.54910829,111.72644259
5561,Na2SrMnV2O8,2.1939,5.64822100,9.79197700,14.00242428,89.94156432,90.00000000,90.00000000
5562,K2Mn3V2CO11,2.2195,5.28264408,5.28264408,22.73238300,90.00000000,90.00000000,120.00000105
5563,V6H2Pb4Se3O26,2.2161999999999997,21.74142100,7.25533000,7.38695790,85.24593522,90.00000000,90.00000000
5564,H6Pt(NO)4,2.2178,13.17087700,7.15798300,7.75864195,69.34700980,90.00000000,90.00000000
5565,CaTeO4,2.2269,6.46489000,9.03628500,14.34804700,90.00000000,90.00000000,90.00000000
5566,V6H2Pb4Se3O26,2.2272,7.23889900,7.39455774,21.97576794,89.59607567,97.83481999,94.36350478
5567,RbUH2SeO7F,2.2095,8.60937400,13.68505800,14.02728000,90.00000000,90.00000000,90.00000000
5568,Rb7SmFe6(P4O17)2,2.2126,9.43739300,10.03820394,10.15917057,92.09282558,93.74803571,116.32234989
5569,SrCo3(P2O7)2,2.2304,7.80851700,7.56140900,9.61464761,68.03045141,90.00000000,90.00000000
5570,Rb2Mn2(MoO4)3,2.1965,11.21138700,11.21138700,11.21138700,90.00000000,90.00000000,90.00000000
5571,La4InSbS9,2.2196,10.36929100,10.36929100,28.44829700,90.00000000,90.00000000,90.00000000
5572,GeS2,2.2271,22.86611800,6.96384700,6.96545127,61.17880944,90.00000000,90.00000000
5573,CoHgH18Br4N6Cl,2.2194,8.07059400,12.29410800,17.66869332,66.80571814,90.00000000,90.00000000
5574,BP4(SI)3,2.1989,9.12876600,12.31238200,13.29316400,90.00000000,90.00000000,90.00000000
5575,VP3(Pb2O7)2,2.222,13.48098705,13.71779171,14.02695693,90.00000000,90.00000000,91.92236968
5576,B11H11C4SI10NF,2.2123,10.57193847,17.49963342,18.41870779,90.00000000,93.07301236,90.00000000
5577,SnH10Br4O5,2.2305,8.33169440,8.33169440,9.10472359,78.94053971,78.94053971,77.13352526
5578,Ga4Ge(PbS3)4,2.2137000000000002,12.84567200,12.84567200,6.21316800,90.00000000,90.00000000,90.00000000
5579,MnFe2Pb8F24,2.1923,5.73335700,9.56957600,20.45005373,75.41398329,90.00000000,90.00000000
5580,Sn4H26(Br4O5)3,2.1928,10.26195100,14.45478435,14.84923951,103.44926857,109.83297292,105.52754063
5581,H8CIN5O3,2.2232000000000003,6.90471100,7.28849067,9.29062438,97.22164061,97.91970839,114.68461396
5582,Na4UC3O11,2.2024,9.40213670,9.40213670,6.61029071,89.97942252,89.97942252,120.09593338
5583,Ru3C9Se2O9,2.201,7.04951100,9.80639969,13.89004449,82.64893986,85.02839697,69.05088034
5584,HgH16(Br3N2)2,2.2179,9.43880700,9.43880700,9.09755000,90.00000000,90.00000000,90.00000000
5585,Rb7DyFe6(P4O17)2,2.2245999999999997,9.40784500,10.00952323,10.14967355,91.97441676,94.12274206,116.23677711
5586,UH6C3SeN2O7,2.2074,10.88135400,9.14188000,13.61589561,48.77498999,90.00000000,90.00000000
5587,Rb2TiV3(PO6)3,2.2072,13.78954141,13.78954141,9.63748100,90.00000000,90.00000000,119.99999718
5588,RbHfC(OF)4,2.2132,8.07466300,7.07273800,15.62913287,65.53840693,90.00000000,90.00000000
5589,SbH36S4N11,2.2175000000000002,12.91658100,8.71996600,9.75689111,80.14884471,90.00000000,90.00000000
5590,Cs3SbH2S4O,2.197,10.20640700,10.02653500,16.32698253,53.76555212,90.00000000,90.00000000
5591,Na2CeF6,2.2283999999999997,6.03594910,6.03594910,3.78846500,90.00000000,90.00000000,119.99999017
5592,Sr2MgMoO6,2.2149,5.65897840,5.65897840,5.65897840,60.00000000,60.00000000,60.00000000
5593,Tl4SnI6,2.1939,4.65913300,10.08444800,19.47989000,90.00000000,90.00000000,90.00000000
5594,SrErAl3SiN4O3,2.2254000000000005,6.09595311,6.09595311,10.12712800,90.00000000,90.00000000,119.99999037
5595,Sm5Si3NO12,2.2295999999999996,9.64503806,9.64503806,6.99613100,90.00000000,90.00000000,120.00000042
5596,Sm2HgO4,2.2283,7.18799379,7.18799379,10.25624756,59.73886218,59.73886218,30.44888243
5597,NaLuTiO4,2.2134,5.26407200,5.40383800,12.30041100,90.00000000,90.00000000,90.00000000
5598,Na2CoSiO4,2.2234,5.38166100,12.25845300,6.30058300,90.00006909,90.00000909,90.00003402
5599,LuPtF7,2.2241999999999997,5.45423500,8.78037800,11.84545602,62.59018372,90.00000000,90.00000000
5600,LaSI,2.2046,7.13396300,7.39553100,14.73078100,90.00000000,90.00000000,90.00000000
5601,Mn3H6(SO6)2,2.1997,7.40510400,10.15798200,13.36050200,90.00000000,90.00000000,90.00000000
5602,H12PdC4(NO5)2,2.1999,6.55778964,7.57455353,14.09911482,90.00000000,90.00000000,116.19825492
5603,C2N2O,2.2098999999999998,9.44067802,9.44067802,6.16069800,90.00000000,90.00000000,120.00000014
5604,Ca3SiH14CSO10,2.193,9.15408958,9.15408958,10.02455100,90.00000000,90.00000000,119.99999694
5605,BaH2(CO2)4,2.2014,9.87816501,9.87816501,11.99057807,64.87996305,64.87996305,27.74168261
5606,AlAgF4,2.2223,5.91941600,7.19820800,7.20454300,90.00000000,90.00000000,90.00000000
5607,Zn2Ag2(MoO4)3,2.2113,7.10981100,8.88506927,10.46521627,106.91992412,105.22539853,103.91422462
5608,Ta2BiO6F,2.2249,7.44999950,7.44999950,7.44999950,120.76760084,118.92930480,90.27002712
5609,TaTl3(SeS)2,2.2137000000000002,7.96918131,6.92310646,6.87989131,70.52815618,54.98961133,54.48223248
5610,TaFe(PbO3)2,2.2213000000000003,5.62801702,5.62801702,5.62801702,60.00000000,60.00000000,60.00000000
5611,SrCa3Ti4O12,2.1997000000000004,7.76219800,5.46883800,5.50869025,89.87431445,90.00000000,90.00000000
5612,Sn4H26(Br4O5)3,2.1925,9.97127500,14.58248400,14.93272739,60.66828021,90.00000000,90.00000000
5613,RbBa3Ga5(Se5Cl)2,2.2253999999999996,8.81535400,8.84749824,10.09387982,115.76628818,115.87723062,89.98663368
5614,NdTi12(Bi5O16)3,2.1954000000000002,5.49102700,10.90017311,16.92155652,89.99279811,99.27141289,90.08179502
5615,NbTlTeO6,2.2252,7.38631743,7.38631743,7.38631743,120.52602676,118.61501185,90.75337032
5616,Na2Nd2PtO6,2.1942,6.63541328,6.63541328,6.67964234,89.01981361,89.01981361,89.23802009
5617,MgAg2(PS3)2,2.205,6.37268410,6.37268410,13.70545779,85.83138677,85.83138677,119.66526060
5618,Li2Al2CrSbO8,2.2204999999999995,5.81787869,5.81787869,9.55486017,89.78119033,89.78119033,60.28925034
5619,Li2AlCr2SbO8,2.2297999999999996,5.92100051,5.92100051,9.60922708,89.70067508,89.70067508,59.56839802
5620,Na2CaNb4Bi2O15,2.207,20.97797737,20.97797737,5.57239900,90.00000000,90.00000000,164.81218205
5621,KBa3Ga5(Se5Cl)2,2.2199999999999998,8.78110900,8.78687457,10.04864037,115.77863342,115.67080591,89.97941443
5622,La9Al5S21,2.2308000000000003,11.88776305,11.88776305,11.88776303,96.86974871,96.86974871,96.86975068
5623,K3Mn4P5H3O20,2.1958,8.28025596,8.28025596,13.85213235,79.54414899,79.54414899,79.68223336
5624,K4PdPt(NO2)8,2.223,12.95841400,7.90730500,9.52911712,83.78726566,90.00000000,90.00000000
5625,Ho2PbS4,2.1942000000000004,14.93165628,14.93165628,12.14436000,90.00000000,90.00000000,149.09869131
5626,Er2PbS4,2.198,14.87322664,14.87322664,12.13303200,90.00000000,90.00000000,149.09016109
5627,CsBa3Ga5(Se5Cl)2,2.2023,8.85477600,8.93509054,10.14464579,115.90721680,115.77149586,90.31906569
5628,HgAs3H12C4S6N,2.1934,10.18427632,10.18427632,27.13585375,88.70308112,88.70308112,42.16512371
5629,CeNd4Zr3O14,2.2117,7.67118630,7.67118630,7.67118626,60.45853903,60.45853903,60.45853632
5630,Ce2ZrO6,2.1921999999999997,8.48868616,8.48868616,8.48868616,154.23667279,154.23667279,36.75569640
5631,BiTeO4,2.2024,7.05084502,7.05084502,10.44248516,66.96613638,66.96613638,47.30602699
5632,Ca2Nd2Nb3FeO14,2.1966000000000006,7.41645385,7.41645385,7.37254728,60.88051295,60.88051295,61.14177343
5633,Ba6La2Fe4O15,2.2186999999999997,12.02677000,12.02677000,7.22852666,89.83295829,89.83295829,119.66774604
5634,Ba2Sr3Nb10O30,2.2230999999999996,4.06464200,12.69938456,12.70100883,90.13118148,90.01655581,90.05361702
5635,Ba8Ca5Mn3Fe8F56,2.2262,5.46441100,7.51940444,30.58235422,91.19941162,90.25482378,111.26992370
5636,AsXeO2F7,2.2217000000000002,8.94732300,9.08172800,9.23601700,90.00000000,90.00000000,90.00000000
5637,CsVCoF6,2.2164,7.54585880,7.54585880,7.54585880,120.61299189,120.39132563,89.13252286
5638,As14H6O31,2.2269,12.21832402,12.21832402,5.14819200,90.00000000,90.00000000,120.00000011
5639,BaCdSnS4,2.1963999999999997,15.69258219,13.01833819,12.87067566,74.62059279,53.11851747,52.26088974
5640,Dy2MgSe4,2.2119,7.47875800,8.67258569,13.85538975,99.18519291,95.42957360,89.97711495
5641,Mg(ScS2)2,2.2141,6.86933400,7.94283833,12.67597280,98.99440290,95.20400260,90.05243504
5642,Tb2MgSe4,2.212,7.50422300,8.69980378,13.86057046,99.20854041,95.45777204,89.97574424
5643,Tb2MgS4,2.2245999999999997,7.20838338,7.20838338,7.20838338,110.58360335,110.58360335,107.26865389
5644,H5C2S2N3,2.2062,10.74038500,4.31426900,12.72230830,84.97864909,90.00000000,90.00000000
5645,LiH2BrO5,2.2006,9.81228232,9.81228232,10.91188322,65.75150162,65.75150162,36.23173912
5646,TiSb(PO4)3,2.1986,8.82530069,8.82529893,8.82529901,58.60314457,58.60314709,58.60315256
5647,MgO,2.1944,10.36242268,9.00632604,10.17451274,96.13607518,88.32727032,90.70177194
5648,MgCr(SiO3)2,2.2191,5.31410655,6.89711986,6.89755970,87.39581935,75.79367855,75.79495751
5649,BaSe,2.2121000000000004,4.72815293,4.72815293,4.72815293,60.00000000,60.00000000,60.00000000
5650,NaCaMgAl(SiO3)4,2.2021,9.37112955,7.84401174,7.64754387,90.00000000,106.74562516,90.00000000
5651,MgSi4WO10,2.2169999999999996,7.45285300,7.45285300,15.01101700,90.00000000,90.00000000,90.00000000
5652,SnBr2,2.1959,4.40131547,4.40131576,6.85984662,90.00001302,89.99998698,119.99999771
5653,Li2CrO2,2.2209999999999996,3.50563777,10.04682912,5.93511356,80.94054870,101.77738277,86.03533779
5654,Ca2FeWO6,2.2019,5.64459419,5.61574329,9.69364846,106.06759764,105.91568016,60.00246172
5655,TiFeO3,2.2281,5.13076939,5.55420694,8.95446172,106.22217531,89.46683158,115.58158959
5656,LiV2OF7,2.2025,5.69012444,8.94864515,5.67154313,93.68923225,103.79728306,86.05919681
5657,Sr2Co(BrO)2,2.1974,8.09613101,9.11519243,9.29762553,96.34143883,64.17320228,77.16921994
5658,LiVP3HO10,2.2098,6.43278703,6.51680937,6.36252321,72.95974026,106.19455189,93.45960903
5659,PrSbO4,2.2032000000000003,5.59749700,7.78351500,7.79094492,79.48818938,90.00000000,90.00000000
5660,Na4CO4,2.2081,5.30110453,5.30110453,5.46060595,67.06518432,67.06518432,60.13954741
5661,B6O,2.2093,5.15348303,5.15348303,5.15348366,63.10621204,63.10621204,63.10620991
5662,SnPS3,2.2190000000000003,7.68465400,6.65579800,11.84574619,56.17912871,90.00000000,90.00000000
5663,Ho2SeO2,2.225,3.82634391,3.82634391,6.80783500,90.00000000,90.00000000,119.99999839
5664,KRb2RhF6,2.2045,6.42437341,6.42437341,6.42437341,60.00000000,60.00000000,60.00000000
5665,Sr2CaUO6,2.2112999999999996,6.13709500,5.97358500,10.39855606,55.15899814,90.00000000,90.00000000
5666,Rb2NbAgS4,2.1942,13.92598086,12.41543394,7.59468772,84.55662052,62.56198879,32.88139069
5667,BaS,2.2091000000000003,4.56594546,4.56594546,4.56594546,60.00000000,60.00000000,60.00000000
5668,CaC2,2.1928,3.91297813,3.91297813,7.45456745,75.40707476,75.40707476,64.24311311
5669,LiVOF3,2.2216,5.15758803,7.84318995,7.35311600,74.09403038,90.00015228,89.98884861
5670,Nb2O5,2.2196,6.82690486,6.82690486,4.06094601,89.27452663,89.27452663,32.95482376
5671,CaLaFeSbO6,2.2181999999999995,5.62187315,8.02689286,5.77079388,90.09357738,88.80228513,89.72060289
5672,LiVP2O7,2.2125,5.27645800,5.36234375,9.07678175,82.44941817,98.09696027,75.83382995
5673,LaZnFeWO6,2.2073,5.56072210,7.82137773,5.96329964,90.05271397,89.99219234,89.70550410
5674,CaLaFeSnO6,2.1986000000000008,5.59256246,7.97820607,5.72476301,90.00272695,90.00427560,89.77784021
5675,LiVP2O7,2.1999999999999997,7.62399413,10.02222160,7.52114228,75.14639028,112.21426855,104.52867231
5676,Na3CoBSO7,2.2089999999999996,5.27926152,8.99045477,6.85480123,90.01565969,90.15300213,88.58469118
5677,Li2CoSn(PO4)2,2.1991999999999994,4.84141827,11.24450041,6.30227905,89.95749980,91.18934497,90.69686133
5678,Ba2Nb6Te2O21,2.214,8.96369610,8.96369610,9.83049046,83.52663708,83.52663708,37.63930349
5679,Rb2WS4,2.23,7.18286500,9.95350200,12.79735300,90.00000000,90.00000000,90.00000000
5680,K3Nb3Si2O13,2.2255000000000003,9.25780944,9.25780944,7.92675300,90.00000000,90.00000000,119.99999602
5681,Sr3ErRhO6,2.2123999999999997,6.84441015,6.84441015,6.84441013,92.22870076,92.22870076,92.22870421
5682,Sr3Sn2O7,2.2055,10.76449157,10.76449157,5.80140300,90.00000000,90.00000000,148.25739542
5683,VCrO4,2.2102000000000004,6.73165699,6.73165700,6.95114113,77.28526684,77.28526682,84.21328818
5684,La2SiSeO4,2.2092,6.34057100,7.37623800,11.28834100,90.00000000,90.00000000,90.00000000
5685,NaCoPO4,2.2197999999999998,5.07975900,6.87033400,8.97502100,90.00000000,90.00000000,90.00000000
5686,Tb2MoO6,2.2285,5.42638176,9.98956279,9.98956279,68.09714485,75.05331086,75.05331098
5687,Sr2UO5,2.1978,5.72560100,8.16564400,12.02594310,71.50173700,90.00000000,90.00000000
5688,Na4Mo(NO)2,2.2048,5.91738400,5.95144133,8.98466992,82.81308883,71.51611535,68.88208380
5689,LaCrO3,2.195499999999999,3.92715100,3.92715100,3.92715100,90.00000000,90.00000000,90.00000000
5690,Mg3V6(FeO6)4,2.2239,6.76522700,8.19601658,9.95291827,105.40092555,105.10449532,102.32516809
5691,Ca2MnWO6,2.1993000000000005,5.52042864,5.73841100,7.92132275,90.00024279,90.30572754,89.99997913
5692,BaTb2NiO5,2.2149000000000005,3.80384349,5.82906028,6.71282382,115.73271345,106.45884913,89.99999996
5693,K2SrNi(NO2)6,2.2134,7.57463692,7.57460789,25.12154597,98.66900702,90.00003727,120.00017724
5694,PbO,2.2292000000000005,4.81682100,5.72836000,6.14762200,90.00000000,90.00000000,90.00000000
5695,Sb2O3,2.2308000000000003,5.19291500,5.51549100,12.62266200,90.00000000,90.00000000,90.00000000
5696,Ba(InS2)2,2.2042,15.69046556,13.00249101,12.87890951,74.63523236,53.04127854,52.32348910
5697,Nb2FeO6,2.2202,5.11313100,5.87865100,14.49018300,90.00000000,90.00000000,90.00000000
5698,Na4I2O,2.2140999999999997,8.71928625,8.71928625,8.71928625,148.67763962,148.67763962,44.88602118
5699,SbI3,2.2114,8.82592367,8.82592367,8.82592375,51.48597671,51.48597671,51.48597928
5700,NbCl5,2.2207,13.67769918,13.67769918,6.41346543,89.41127909,89.41127909,85.94665887
5701,Cs2TeBr6,2.2091,7.96104231,7.96104231,7.96104231,60.00000000,60.00000000,60.00000000
5702,K2TeBr6,2.2277,7.70141500,7.70141500,11.09744500,90.00000000,90.00000000,90.00000000
5703,XeN2(OF4)2,2.1924,6.02040800,9.08971000,13.32052700,90.00000000,90.00000000,90.00000000
5704,K2VH2OF5,2.2246,6.38968685,6.38991416,8.01443608,85.15353028,85.15232061,78.86820360
5705,AlH3,2.1973,4.71612781,4.71612781,4.71612819,56.55993547,56.55993547,56.55994558
5706,CoH8(BrO2)2,2.2022,7.59581800,6.12238700,8.65241397,69.72182153,90.00000000,90.00000000
5707,K2FeH2Cl5O,2.2076,7.40059000,9.55290300,13.97823300,90.00000000,90.00000000,90.00000000
5708,MoH8S2(NO)2,2.2159,6.89100157,6.89100157,9.62011790,66.94139559,66.94139559,64.81669661
5709,Na3SbH18S4O9,2.2043,12.01488100,12.01488100,12.01488100,90.00000000,90.00000000,90.00000000
5710,BeTe,2.2113000000000005,4.00737212,4.00737212,4.00737212,60.00000000,60.00000000,60.00000000
5711,Li2PWO4F,2.2143,5.31483700,5.96664052,7.76032705,73.45003124,75.90576386,82.64792048
5712,CrPO4,2.2024000000000004,4.74841300,5.70502100,9.88179100,90.00000000,90.00000000,90.00000000
5713,LiCr2P3O11,2.2253999999999996,7.15415058,7.15415058,8.69306493,70.18217989,70.18217989,74.03022159
5714,Li3Fe(PO4)2,2.2283999999999997,8.83142500,4.92173400,7.85390658,55.64902970,90.00000000,90.00000000
5715,Li3Fe2(PO4)3,2.2274,8.62262060,8.62262060,6.41747424,73.56092068,73.56092068,95.44150919
5716,LiV(PO3)4,2.196,7.01761905,7.01761905,9.66947791,88.83151779,88.83151779,109.44718496
5717,Li7V4P9O32,2.1997999999999998,13.91207600,13.91207600,6.41839500,90.00000000,90.00000000,90.00000000
5718,GdBr3,2.2085,7.36784274,7.36784274,7.46968931,81.22210736,81.22210736,120.10347729