,pretty_formula,bandgap,cell_length_a,cell_lentgh_b,cell_lentgh_c,cell_angle_alpha,cell_angle_beta,cell_angle_gamma
1817,KNbCl6,1.9232,7.02413657,22.48606517,23.82055667,90.00000000,91.10968049,90.00000000
1818,Sm6Th4O17,1.9197000000000002,3.90451790,3.90451815,39.88361553,60.69300684,60.69300454,59.99999690
1819,Ba2NaReO6,1.9173999999999998,5.95476258,5.95476258,5.95476258,60.00000000,60.00000000,60.00000000
1820,Cr2Bi28O47,1.9260999999999995,8.86324900,8.87671661,17.12937181,90.10120184,90.43196589,90.31671016
1821,Sr5Li25La7(BiO6)8,1.9155000000000002,11.61383143,11.54710639,11.59260907,109.71164068,108.82509662,109.80694822
1822,Ca10La6Mg3Ti13O48,1.9174999999999995,5.49509500,5.56208916,31.18936076,89.86994677,89.96937855,89.92993173
1823,Ba2La2MgTi3O12,1.9234,5.66086000,5.66540734,27.58879237,90.10834197,89.94881574,119.86431874
1824,Li7Zr3Nb(TeO6)4,1.915,5.26610100,5.53573144,34.71059395,92.43400749,90.00297946,118.36488486
1825,Na3Sr4La3Ti10O30,1.9372000000000003,5.54360800,5.54882950,19.90459225,97.93838560,97.92666537,90.43714451
1826,Ag3H13SeN4O5,1.9386999999999999,6.53821900,11.89814600,14.74610100,90.00000000,90.00000000,90.00000000
1827,KH2I3O,1.9125,10.17997700,4.69073900,9.77311943,63.68517177,90.00000000,90.00000000
1828,Ba2H6Ru,1.9344999999999999,5.71243709,5.71243709,5.71243709,60.00000000,60.00000000,60.00000000
1829,RbH2N,1.9109,4.22672800,4.88270200,6.46361511,81.49359282,90.00000000,90.00000000
1830,NiH10C4(SN4)2,1.9160000000000001,8.50605386,8.50605386,9.20461957,71.39701423,71.39701423,56.60723972
1831,ScPS4,1.9169000000000003,6.26745100,6.57324897,7.52471176,87.24963624,88.87848710,80.91468314
1832,LaGaS2O,1.9331999999999994,5.59694600,5.81315500,11.55035100,90.00000000,90.00000000,90.00000000
1833,NaSr3NdTi5O15,1.9217000000000004,20.16092064,20.16092064,20.16092064,164.27680126,164.27680126,22.30687113
1834,Rb2U2WO10,1.9222000000000001,29.09314200,8.41571500,10.95468752,57.28866814,90.00000000,90.00000000
1835,Li3V2(PO4)3,1.9338000000000002,8.75528355,8.75528355,8.73975671,60.77142201,60.77142201,59.68615684
1836,LiCrP2O7,1.9381999999999997,13.44956000,5.04158100,9.50203015,58.57778139,90.00000000,90.00000000
1837,La2Si2O7,1.928,8.59356500,6.53473400,15.74548018,89.12473366,90.00000000,90.00000000
1838,Cd(AsO3)2,1.9348999999999998,4.92850206,4.92850206,4.98532500,90.00000000,90.00000000,120.00000076
1839,MoO3,1.9184,5.47523100,5.65551100,7.28723916,89.40710331,90.00000000,90.00000000
1840,Na10Zn7Sn7H24(S13O6)2,1.9307,12.77243794,12.77243794,12.77243795,59.96478014,59.96478014,59.96478038
1841,RbLi2(H2N)3,1.9381,5.37618500,6.98176256,7.00897345,101.61352576,90.13073701,90.17497910
1842,TeH18(Br3O4)2,1.9131,9.88300700,7.72754700,14.05407482,59.39441157,90.00000000,90.00000000
1843,CoH6C2S2N2O3,1.9187999999999998,7.01356084,7.01356084,10.64672175,88.79131069,88.79131069,51.36104832
1844,Ca2V3Co2AgO12,1.9168999999999996,10.94507554,10.94507554,10.94507554,109.39469350,109.39469350,109.62438356
1845,KVH2SO7,1.9434,4.72160400,10.86869600,11.66718200,90.00000000,90.00000000,90.00000000
1846,Ba2Na2O3,1.9318,7.18098200,7.18098200,11.10306500,90.00000000,90.00000000,90.00000000
1847,V2Ge2O7,1.9212000000000002,5.59561028,5.59557279,10.08593070,103.19397957,76.80621254,82.99112316
1848,Li4Co7(OF7)2,1.9331999999999998,6.20193554,6.19164764,10.58859414,91.01050725,71.79392711,121.49368461
1849,CeZr7O16,1.9390000000000005,6.94138300,7.48272458,7.50368183,90.15032429,116.38887651,116.43542580
1850,LiMn2F7,1.9267,5.53262500,5.26015900,9.83247219,79.62183987,90.00000000,90.00000000
1851,Li3NiOF3,1.9215,2.90949338,16.88782488,5.81896131,99.92056635,90.00019495,90.00002180
1852,CeZr11O24,1.9395000000000002,6.90092500,7.48261061,9.74339839,93.47239831,91.55057566,116.31371654
1853,Li8FeCo3O8,1.9241,5.36866000,5.51275601,6.99770806,89.83236371,89.43441088,89.17389035
1854,Fe4OF7,1.9342000000000001,7.61096292,7.61096292,6.68309800,90.00000000,90.00000000,129.13287822
1855,LiVP2(HO4)2,1.9417999999999997,5.38461100,7.96638700,6.93609600,89.99981563,89.99875392,89.99901427
1856,Li3Fe3(SnO5)2,1.9135,5.21500300,5.35059568,8.14230861,74.42223163,74.87446779,77.25604655
1857,Li4NiOF4,1.9211,2.91190745,11.64576232,11.36684431,112.59038656,97.36303489,90.00221595
1858,LiVCoO4,1.9385000000000001,5.20290063,5.20264510,6.30451401,89.90410208,89.91177755,66.72254353
1859,Li6NiOF6,1.9243000000000001,2.90337549,14.59594513,5.80674109,95.70700386,90.00012559,84.29285349
1860,Li3VF8,1.9233,5.84853892,5.84853892,5.59875712,72.07798121,72.07798121,106.03276284
1861,LiVF5,1.9205999999999999,5.27747400,6.01972800,12.77857100,90.00000000,90.00000000,90.00000000
1862,FeOF,1.9183,3.96468500,6.29873718,6.29876461,89.87942373,90.00024072,89.99971152
1863,Li4VF8,1.9347,6.08210500,5.17624600,5.27266562,67.87841527,90.00000000,90.00000000
1864,Zr7VO16,1.9248000000000003,7.27948206,7.30463437,12.76197279,104.06454572,73.39863053,119.83652709
1865,Li4VCr3O8,1.9163999999999994,5.11719089,5.18136515,5.94303518,73.32030700,89.99526692,80.80447722
1866,Li2VF6,1.9324000000000001,4.94685963,4.94685963,4.50472200,90.00000000,90.00000000,119.99999503
1867,LiFe2(PO4)2,1.9143,4.55117500,5.20760688,7.69783861,88.52633218,102.63135204,104.04444096
1868,LuWO4,1.9285999999999994,5.72255600,5.06676200,5.24400164,84.87229991,90.00000000,90.00000000
1869,Li4Co3WO8,1.9311999999999996,6.00948516,6.00948516,6.00948489,60.53831348,60.53831348,60.53831916
1870,P2WO8,1.9197000000000002,7.20665200,5.24462600,9.51934963,57.30760628,90.00000000,90.00000000
1871,Li3Fe4(OF3)3,1.9446000000000003,5.98986100,5.99895375,6.03112413,98.69825260,99.10400302,98.84908120
1872,Li2NiO2,1.938,3.07112000,3.07108664,6.64970966,76.64813396,89.99993952,59.99969957
1873,CsInO2,1.9414999999999996,3.47276104,3.47276104,13.47895100,90.00000000,90.00000000,119.99998163
1874,Li4CoO3F,1.9325,5.37099408,10.74545781,6.69618200,90.00013482,90.00011697,94.19040399
1875,Li4Mn(WO4)3,1.9187000000000003,7.12936357,10.22223545,7.30299899,69.53919482,91.19287127,70.04258308
1876,Li2CrFeO4,1.9368000000000003,5.11403300,5.92958886,7.83227562,79.01172643,77.50814256,73.42268080
1877,Na2MnO3,1.9374,5.29070399,5.29070399,5.69912674,80.80972355,80.80972355,120.02703350
1878,LiV2F9,1.9104,5.03422400,8.48900302,8.91914993,111.77246683,93.05925187,100.24091010
1879,Li3V(TeO3)4,1.9268,5.51790600,6.22886306,8.07051917,95.29923221,91.94101846,95.98252425
1880,LiCuSi2O5,1.9407999999999999,4.93629000,5.73663500,7.97171785,73.01532959,90.00000000,90.00000000
1881,WSCl4,1.9441,6.70866000,7.94664120,8.07220081,101.24272817,94.13640175,93.26261461
1882,Li2AlNiO4,1.9405999999999999,5.36602600,4.98207500,8.11536360,52.09785934,90.00000000,90.00000000
1883,LiVSiO4,1.9255,9.33677658,5.63001787,6.39466545,106.04881219,104.20602430,80.27496617
1884,Li3TiCo3O8,1.9303999999999997,5.86380220,5.86380220,5.86380147,57.96213503,57.96213503,57.96213724
1885,Li3TiCr3O8,1.9097999999999997,5.88909407,10.26592124,5.99931033,106.68330503,60.60772170,106.66658618
1886,LiCrPO4,1.9348,5.12072600,9.24874900,6.44572100,90.00024834,89.99995096,89.99993546
1887,LiFeCO4,1.9253999999999998,3.16310900,9.34797800,9.35478600,90.00000000,90.00000000,90.00000000
1888,Li3Fe(PO4)2,1.9249999999999998,4.88038600,9.08468600,14.79660778,76.36684589,90.00000000,90.00000000
1889,Os(OF2)2,1.9089,5.02116127,5.02116127,27.87245700,90.00000000,90.00000000,119.99999032
1890,Li2V3P9O28,1.9385,7.06421600,9.16352624,9.28587832,111.47544951,109.82197634,98.87795315
1891,Li4Mn3Co(PO4)4,1.9346,6.11880000,4.77475900,10.52859778,89.80057502,90.00000000,90.00000000
1892,Li2VCrP2(HO5)2,1.9194,5.16585700,7.38838989,15.15866793,94.11483301,92.07554091,108.93428913
1893,Li10Co(SiO5)2,1.9432,5.18435300,6.17534200,15.34257844,101.56726024,99.12685890,89.99801447
1894,Li6Cr5(P2O7)4,1.9139,9.17391700,10.81002190,12.90252229,89.82521380,106.40662449,111.46751410
1895,TaSb3O8,1.9390999999999998,5.57879800,4.96108960,23.91264076,90.00410259,90.04287005,90.02807570
1896,Li3VF7,1.9246000000000003,5.80731696,5.80731696,5.80731708,63.76151931,63.76151931,63.76151663
1897,NaMnO4,1.94,5.40504428,5.40504428,7.04613100,90.00000000,90.00000000,114.01403197
1898,Li2VF6,1.9326,5.80893364,5.80893364,4.87355900,90.00000000,90.00000000,119.99999593
1899,LiVF5,1.9428,7.46263200,6.49120000,14.81682043,85.25607004,90.00000000,90.00000000
1900,Hf2N2O,1.9257999999999997,7.01107057,7.01107057,8.19391503,80.18130199,80.18130199,26.98467196
1901,LiFe2(BO3)2,1.9403,5.20982000,9.08865225,10.21663069,88.87542442,89.06481516,89.64216431
1902,V6O5F19,1.9380000000000002,5.39191600,5.55645265,14.85956211,100.64274120,89.48300094,92.89731271
1903,NaSbO3,1.9295999999999998,8.10530600,8.16446304,8.24757755,109.39925254,109.31935902,108.45155726
1904,LiV2OF7,1.9375,5.85617859,8.71600313,5.87151867,91.29123501,95.88104931,88.89142445
1905,Zn2Hg2H2S2O11,1.9124,6.20824700,11.41969800,13.27055400,90.00000000,90.00000000,90.00000000
1906,Li5FeO3F,1.9448999999999999,7.48641465,7.48642134,9.02340477,110.57333246,70.41222513,80.07522595
1907,LiVO3,1.9411999999999998,4.95027624,4.95027624,5.36632691,77.40280801,77.40280801,115.82903879
1908,LiVGeO5,1.9331,6.53080459,6.53080459,4.64482700,90.00000000,90.00000000,91.14793824
1909,V3OF11,1.9363,5.27472300,5.42271300,14.93741363,79.76538220,90.00000000,90.00000000
1910,LiVOF3,1.9093,7.02492835,7.02492835,4.72606182,70.86729880,70.86729880,39.33884358
1911,K3SiTe3,1.9175999999999997,8.50561201,8.50561201,8.98214734,74.67172532,74.67172532,109.72442493
1912,NaMnO4,1.9225,8.49504600,5.73518000,9.05508819,52.84565746,90.00000000,90.00000000
1913,ZnNi4O5,1.9126000000000003,6.71433092,6.71433092,9.96149026,78.29798320,78.29798320,25.86628924
1914,PWO5,1.9237,5.38643400,5.40826379,7.41760926,107.10097578,107.56797166,97.95235454
1915,Li4MnFe2(BO3)4,1.9108000000000003,9.00665500,5.29164700,11.20197904,62.71151522,90.00000000,90.00000000
1916,LiVF5,1.9129999999999998,5.21881100,7.48378200,10.45894000,90.00000000,90.00000000,90.00000000
1917,Li2V3Si3O10,1.9249999999999998,8.28099422,8.28099422,10.61678525,87.38722609,87.38722609,34.17261988
1918,Li4MnCr3(PO4)4,1.9104999999999999,6.31625300,4.77923600,10.32667475,89.35086502,90.00000000,90.00000000
1919,NaVPCO7,1.9214000000000002,6.30323400,10.66919428,10.53054239,117.91773969,90.00141554,90.00053688
1920,Li4Bi2C4SO16,1.9199000000000002,10.06235583,9.64386396,10.18860185,59.16848703,58.27446298,63.10846568
1921,LiLa5Ti8O24,1.9309000000000003,8.70633216,8.70633216,8.76476493,66.62453514,66.62453514,53.17564950
1922,Li4CrFe3O8,1.9207999999999998,5.19603164,5.96928957,10.75608966,106.06307915,85.41294809,73.19355593
1923,LiBi3O5,1.9093999999999998,6.44207300,8.02631400,10.16224900,90.00000000,90.00000000,90.00000000
1924,Bi3BO6,1.9177999999999997,4.94767500,9.84630600,12.42981700,90.00000000,90.00000000,90.00000000
1925,Li4VCr3O8,1.9238000000000004,5.13936800,5.96145761,10.70666425,98.10976177,103.68721318,106.91485886
1926,Li4V3CrO8,1.9340000000000002,5.17035800,7.91002197,7.91484516,81.97444303,83.75237736,70.96499601
1927,Li2VCrO4,1.9310999999999998,5.15992000,5.17925799,8.94967362,90.10136343,106.68637291,99.48897302
1928,Li4V3CrO8,1.9346,5.17703685,5.98331146,10.78264853,106.02238588,85.40812797,73.14908818
1929,V2(SO4)3,1.913,8.68476200,8.50329400,14.60751118,54.96074182,90.00000000,90.00000000
1930,MgMnO3,1.9194999999999998,5.46434102,5.46433445,5.46433647,54.72205635,54.72199793,54.72198988
1931,V3(PO4)2,1.9158999999999997,8.79027991,9.34978781,9.70916895,116.71194822,92.42121237,113.47214694
1932,Li6CrSn3(PO4)6,1.9426,8.51566600,8.63150588,8.66443522,63.69448426,65.25680212,64.52298080
1933,Li2Cr3SbO8,1.9368000000000003,5.96407400,9.66574152,5.95483993,89.93543071,60.05108843,89.96854043
1934,Na2VSiCO7,1.918,6.61829800,10.28227761,10.77602201,118.28733134,90.00000532,90.00000000
1935,Sb4I2O5,1.9316,5.29847600,7.09031300,13.97119221,84.21867259,90.00000000,90.00000000
1936,Li2V5B3O13,1.9400999999999997,3.23444800,9.61664900,15.12135374,73.53362095,90.00000000,90.00000000
1937,Li6V2B4SO16,1.9205,9.46056264,9.46056264,9.46056264,60.00000000,60.00000000,60.00000000
1938,Rb2UO4,1.9262,7.74454998,7.74454998,7.74454998,147.08485125,147.08485125,47.23816250
1939,H12RuSN4(ClO)2,1.9294000000000002,7.42255700,9.40371500,14.17945600,90.00000000,90.00000000,90.00000000
1940,Nb2PbO6,1.9287999999999998,12.99899034,12.99899034,7.90381100,90.00000000,90.00000000,92.01017660
1941,Fe4OF7,1.9260000000000002,4.81036900,6.48787020,10.15955766,71.55222871,89.19567162,89.73729691
1942,Li2VO2,1.9101000000000004,3.23017336,3.23017336,5.19309900,90.00000000,90.00000000,119.99998683
1943,Li3La5Ti6Nb2O26,1.9105000000000003,5.54799700,11.08620600,17.16234702,80.95824549,90.00000000,90.00000000
1944,Zr2N2O,1.9396,5.58660936,5.58660936,10.44656563,73.88798498,73.88798498,59.33592114
1945,Hf2N2O,1.9203999999999999,8.72904100,8.73031544,8.73374745,109.39131722,109.58788843,109.40362193
1946,P8W3O29,1.9217,9.93452609,9.93452609,13.81262700,90.00000000,90.00000000,120.00000063
1947,Li6Fe2O5F2,1.9382000000000001,5.91689400,5.91737694,9.96991936,93.19609549,97.05917475,118.91062888
1948,VOF2,1.9381,5.18583200,5.18740460,13.41250391,88.68015720,89.13714980,60.69916134
1949,Li2Fe2Ni(PO4)3,1.9218,8.35191735,8.44370947,8.44370917,63.70482115,63.94258678,63.94258440
1950,TiNi3Sn2(PO4)6,1.9350999999999998,8.48580732,8.48580732,8.48580723,61.44246178,61.44246178,61.44245772
1951,Li2Bi2(SO4)3,1.9109000000000003,8.88152956,8.88152956,8.99917946,66.01931275,66.01931275,68.35769675
1952,Li2VF6,1.9230999999999998,8.70872900,8.76330539,4.53017601,89.66749052,90.00000000,119.79420171
1953,Y2Sb2O7,1.9217999999999993,7.55935794,7.55935794,18.57285300,90.00000000,90.00000000,119.99999951
1954,Li4Cr2Ni3Sn(PO4)6,1.9375,8.41975200,8.69223835,8.70312840,61.78745482,62.65487996,62.55833479
1955,Li3Fe2(SiO4)2,1.9238,5.11104400,6.62236600,10.74845171,89.33925653,90.00000000,90.00000000
1956,Na5LaO4,1.9401000000000002,5.63230300,7.67661300,8.13079800,90.00000000,90.00000000,90.00000000
1957,Hg(TeO3)2,1.9276000000000002,12.80491700,6.57290700,8.67069507,60.45667328,90.00000000,90.00000000
1958,Hf2N2O,1.9263000000000003,8.71262800,8.72778206,8.74461060,109.39599045,109.49587127,109.40139916
1959,Hf2N2O,1.9270000000000005,8.69246400,8.73482917,8.74401619,109.61262327,109.39131429,109.22488194
1960,Na2Cr4O13,1.9087,7.28333700,8.82557400,9.00239866,88.17095169,90.00000000,90.00000000
1961,Hf2N2O,1.9408000000000003,8.71382800,8.72397752,8.74641169,109.47940982,109.43754255,109.30725717
1962,Li2VF5,1.9088000000000003,5.30800100,13.75571400,14.52497532,83.31356567,90.00000000,90.00000000
1963,Li5Co7O3F13,1.9251999999999998,6.03837000,6.09113041,10.58232110,73.37318603,73.47831820,60.48032964
1964,Li3Fe9O5F11,1.9446999999999999,6.14335600,6.22469325,10.33002774,75.36299506,74.34078784,61.35659837
1965,BaGa12O19,1.9291,5.88939502,5.88939502,23.29760500,90.00000000,90.00000000,120.00001151
1966,NaErSe2,1.9423,7.39661521,7.39661521,7.39661484,32.28802190,32.28802190,32.28802278
1967,BaBiBS4,1.9400000000000004,8.21798467,8.21798467,7.73514987,80.20841965,80.20841965,44.90099967
1968,ThNb4O12,1.9434,11.97588008,11.97588008,11.97588008,152.94345047,96.08688022,90.19512719
1969,CoSn(PO4)2,1.9327,4.97569677,11.74688461,11.76052199,118.26404652,89.43069913,90.51324182
1970,VF4,1.9188999999999998,5.10403100,5.92242400,9.69577337,87.80188350,90.00000000,90.00000000
1971,Li2WS4,1.931,6.06981300,6.06981300,5.45009000,90.00000000,90.00000000,90.00000000
1972,Li2Cr2FeSbO8,1.9148000000000005,5.98894800,9.66813984,10.33666095,90.12983274,90.18053476,90.07746199
1973,Au2S,1.9091,5.34712200,5.34712200,5.34712200,90.00000000,90.00000000,90.00000000
1974,SbClO,1.9191000000000003,3.79107200,3.79107200,7.91690900,90.00000000,90.00000000,90.00000000
1975,NiAgF3,1.9448000000000003,4.00395400,4.00395400,4.00395400,90.00000000,90.00000000,90.00000000
1976,NaHoSe2,1.9119000000000002,7.37905228,7.37905228,7.37905303,32.50011162,32.50011162,32.50011448
1977,NaDySe2,1.9221000000000001,7.40967198,7.40967198,7.40967181,32.54801785,32.54801785,32.54801963
1978,CaCr2P2O9,1.9363000000000006,6.44634000,7.44741600,14.31877800,90.00000000,90.00000000,90.00000000
1979,HoMg(WO3)2,1.9413999999999998,8.00833800,5.43916600,5.64956562,89.06912008,90.00000000,90.00000000
1980,MgFe3P3O13,1.943,6.34089600,7.64587200,10.12453249,79.78670122,90.00000000,90.00000000
1981,ZnFe3P3O13,1.9318999999999997,6.35440800,7.67329100,10.09070952,79.43508908,90.00000000,90.00000000
1982,Mg(CoO2)2,1.9089999999999998,2.82956400,8.69342700,10.01413300,90.00000000,90.00000000,90.00000000
1983,Mg(FeO2)2,1.9258000000000002,7.67379196,7.67379196,9.15795745,56.52559907,56.52559907,22.03024998
1984,Sr4MgCr2(SO3)2,1.9095000000000004,3.94686200,3.94686200,15.91827800,90.00000000,90.00000000,90.00000000
1985,ZnBiAsO5,1.9348,7.25542100,8.13134800,8.99938000,90.00000000,90.00000000,90.00000000
1986,CaP4WO12,1.9245,7.76545261,7.76545261,10.97696808,64.54080240,64.54080240,70.82593531
1987,MoF5,1.9359000000000002,9.99088400,5.60068300,7.93028839,69.33670125,90.00000000,90.00000000
1988,Mg3Ge3(SbO6)2,1.9325,10.95250550,10.95250550,10.95250550,109.47122063,109.47122063,109.47122063
1989,Ge3(MoO6)2,1.9391000000000003,10.72749478,10.72749478,10.72749478,109.47122063,109.47122063,109.47122063
1990,Zn3Cr2(GeO4)3,1.9332000000000003,10.48057362,10.48057362,10.48057362,109.47122063,109.47122063,109.47122063
1991,Mg2BiWO6,1.9223,5.60647200,5.51520300,9.78610241,56.05803142,90.00000000,90.00000000
1992,MnZnAsO5,1.9400000000000002,6.20788300,8.24928400,8.39338100,90.00000000,90.00000000,90.00000000
1993,Zn2TeWO6,1.9426999999999999,5.45187600,5.72796795,7.14975114,109.57944309,91.72125162,109.40744147
1994,Zn3Sn3(AsO4)4,1.9361000000000002,5.45767400,9.42372000,17.40436030,60.92312750,90.00000000,90.00000000
1995,Mg2Sn3O8,1.9335000000000004,6.31846817,6.31846817,9.54304600,90.00000000,90.00000000,120.00000180
1996,YTa(WO4)2,1.9385000000000003,5.84250000,5.47366000,10.98148337,61.98132043,90.00000000,90.00000000
1997,CaFeAs2O7,1.9288999999999998,9.17433400,7.54914100,9.56394390,68.83037813,90.00000000,90.00000000
1998,PrMg(WO3)2,1.9270999999999994,5.71966600,5.50392900,9.78420996,55.99123919,90.00000000,90.00000000
1999,VPO4,1.928,9.14789876,9.14789876,15.86180191,61.95062839,61.95062839,32.58391299
2000,MnHO2,1.9717000000000002,3.23680077,5.26040841,4.78128272,99.43468822,105.92055597,84.02767601
2001,KSmSe2,1.9650999999999998,8.06610458,8.06610458,8.06610418,30.97586052,30.97586052,30.97585667
2002,Ca2TaN3,1.9592000000000005,6.30257780,6.30257780,11.73075100,90.00000000,90.00000000,124.57648918
2003,Mg3WN4,1.9534000000000002,15.98914243,27.69780936,9.02866248,90.00000000,90.00565856,90.00000000
2004,KYMg14O16,1.9677000000000007,8.73096500,8.73096500,4.44306400,90.00000000,90.00000000,90.00000000
2005,Mg30ZnSiO32,1.9549000000000003,8.55761600,8.55761600,8.54159400,90.00000000,90.00000000,90.00000000
2006,Mg30MnSiO32,1.9680999999999997,8.54181900,8.54181900,8.55638300,90.00000000,90.00000000,90.00000000
2007,Mg30GaBO32,1.9755000000000003,8.53041200,8.53041200,8.53168100,90.00000000,90.00000000,90.00000000
2008,RbLaMg30O32,1.9585,8.69458200,8.69458200,8.82284900,90.00000000,90.00000000,90.00000000
2009,Cs2Ti(AgS2)2,1.9722000000000002,6.10972100,6.10972100,14.00481600,90.00000000,90.00000000,90.00000000
2010,K5Na3Ta7NbO24,1.9613999999999998,8.02436584,8.02436584,8.02353601,89.99845994,89.99845994,90.00134301
2011,RbNdSe2,1.9719,8.41622648,8.41622648,8.41622674,30.19202242,30.19202242,30.19201888
2012,RbSmSe2,1.9752999999999998,8.39841561,8.39841561,8.39841504,29.88377158,29.88377158,29.88377626
2013,CuPN2,1.9626000000000001,5.00768998,5.00768998,5.00768998,126.63845020,126.63845020,78.84131242
2014,LaFeO3,1.9641000000000002,5.56695157,5.56696355,5.56696690,60.86588358,60.86600058,60.86586797
2015,CsFeO2,1.9760000000000002,6.12233840,6.12233699,6.12233840,90.00000000,60.00001528,120.00001528
2016,Rb2PdC2,1.9770000000000003,5.46316503,5.46316503,5.30984100,90.00000000,90.00000000,120.00001249