,pretty_formula,bandgap,cell_length_a,cell_lentgh_b,cell_lentgh_c,cell_angle_alpha,cell_angle_beta,cell_angle_gamma
2626,Ca3PbSe4,2.0113999999999996,4.26425100,6.06120400,8.56652500,90.00000000,90.00000000,90.00000000
2627,Ba2ScAlO5,1.9833999999999996,5.88229345,5.88229345,14.61090713,89.99331355,89.99331355,59.30015131
2628,Pr2MgS4,1.9962,7.41419108,7.41419108,7.41419108,110.98490366,110.98490366,106.48450827
2629,Dy2MgS4,1.9846000000000004,3.84730200,12.59574800,13.49555600,90.00000000,90.00000000,90.00000000
2630,Lu2MgS4,1.9830999999999999,3.78503900,12.47181500,13.10569800,90.00000000,90.00000000,90.00000000
2631,Al2O3,1.9889000000000001,10.17372957,10.43683181,10.62314251,88.02867419,81.66492840,87.65392418
2632,CaO,1.9973999999999998,11.30528316,12.13049363,12.39780361,98.17917486,83.34033848,89.41064481
2633,Mg3MoN4,1.9904000000000002,15.94961739,15.94962787,8.97770155,90.00115861,90.00115967,119.99867485
2634,Bi2(CN2)3,1.9790999999999999,10.72287790,6.83665257,29.90985516,89.99989544,158.40102548,71.41044779
2635,Zn2Si5N8,1.9912999999999998,10.71704922,9.83299968,13.48796478,90.00000000,90.00000000,90.00000000
2636,AlVO3,2.0138999999999996,5.03605400,5.05276100,7.86298900,90.00000000,90.00000000,90.00000000
2637,Mg3Si4(SbO7)2,1.9939999999999998,9.51204339,9.51204339,10.51751444,59.63569440,59.63569440,51.42571063
2638,LiVSi4(HO6)2,1.9956,7.35544879,8.15104423,9.30283023,62.43481424,88.92819502,88.59847847
2639,Li2Cr(SiO3)2,1.9860000000000002,5.19723591,10.48550509,5.19578035,105.71500967,95.33780598,74.25672942
2640,MnOF,1.9869,5.52449682,5.80079392,5.52812059,85.55957706,116.60675393,85.83966582
2641,Ca3Fe2(WO6)2,2.0105,5.50950684,7.74901008,5.53535900,90.00001775,89.99997924,90.06184677
2642,Co2As2O7,1.9929000000000006,4.87254734,6.52006000,8.71087878,89.76148778,89.94213133,102.06123900
2643,Zn2CrWO6,2.0147999999999997,5.24893665,5.28651940,7.71138165,90.07807949,89.69020044,90.02977132
2644,MgFe2O3,1.9955999999999996,4.21674900,6.97333829,4.42991200,90.00106631,90.00189596,72.40069334
2645,Mg2VWO6,2.0000999999999998,5.20531344,5.55136273,9.03442728,74.62706146,90.95135868,62.58621971
2646,V2FeO6,2.004,5.93431256,6.93536913,6.83138235,95.58970288,75.26371190,105.30655714
2647,K3GeSe3,2.0080999999999998,8.00282518,8.00282518,8.59253510,74.97822359,74.97822359,109.89480473
2648,Rb2NbCuS4,1.9879999999999998,13.98986513,12.47726316,7.46683337,85.16063384,62.71025399,32.12911218
2649,Na4TeO5,1.98,5.77027242,5.80946825,8.65265151,101.94879537,108.75556532,102.54100031
2650,KGdS2,1.9941000000000002,7.70650701,7.70650701,7.70650700,30.80062082,30.80062082,30.80061566
2651,AgMo3(PO7)2,1.9944000000000002,6.50796281,8.34042651,10.71220435,109.39716052,90.00000000,90.00000000
2652,USO6,2.0042999999999997,6.01857900,6.82681900,12.96566552,76.73685940,90.00000000,90.00000000
2653,La3SiAgS7,2.0024000000000006,10.49348338,10.49348338,5.83684700,90.00000000,90.00000000,119.99999608
2654,BaLu2CoO5,1.9953000000000003,5.67057317,7.00706263,12.16111186,90.00000000,90.00000000,90.00000000
2655,Na3GeSe3,1.9947,12.07993000,8.36238200,8.45852123,60.96079986,90.00000000,90.00000000
2656,Mn2SiO4,1.9884999999999997,4.94853300,6.34087600,10.75826500,89.99998564,90.00016093,90.00000000
2657,NaMnO2,2.0082,5.74489929,5.83070162,6.55343518,63.59336492,110.56543006,90.00496729
2658,TiMnO3,1.9819,5.18905581,5.18904900,5.66642265,62.74894810,117.25120082,120.00106331
2659,K3MnO4,1.9861,6.58870793,11.00535773,9.68359078,67.99197568,90.00000216,107.41802212
2660,K2MnV4O12,1.9929999999999999,9.55658700,8.41777400,9.86466811,56.16316164,90.00000000,90.00000000
2661,NaV(SiO3)2,1.9872,5.38220427,6.61021583,13.14545929,89.31790402,101.00546001,77.45706064
2662,Ba5Sm8Mn4O21,1.9978999999999996,5.89146494,10.50518043,10.50518042,85.49026813,73.71546674,73.71546673
2663,VAg2(PO4)2,2.0141,14.09545600,6.36037500,7.79557738,80.34649474,90.00000000,90.00000000
2664,K4BaU3O12,2.0106,7.71794565,7.71794565,7.71794565,109.47122063,109.47122063,109.47122063
2665,PtPbF6,2.0061999999999998,4.91807647,4.91807647,4.91807674,98.30089798,98.30089798,98.30089840
2666,Mg(InS2)2,2.0039000000000002,7.70463266,7.70463266,7.70463266,60.00000000,60.00000000,60.00000000
2667,K2Pb2O3,1.9853,7.46189312,7.46189312,7.46189312,109.47122063,109.47122063,109.47122063
2668,BaEr2CoO5,1.9923999999999995,5.72195105,7.08008161,12.28913139,90.00000000,90.00000000,90.00000000
2669,HoMnO3,1.9915000000000003,5.31208200,5.85681000,7.47783700,90.00000000,90.00000000,90.00000000
2670,Ba2In2S5,1.9867,11.99404900,12.92486000,13.39899300,90.00000000,90.00000000,90.00000000
2671,CsI3,2.0157000000000003,7.22657800,10.46590500,11.31801100,90.00000000,90.00000000,90.00000000
2672,Sr2NCl,1.9838999999999998,7.45801990,7.45801990,7.45801981,30.42954187,30.42954187,30.42953435
2673,Ba2BiSbO6,1.9837999999999996,6.10300196,6.10300196,6.10300272,60.47829475,60.47829475,60.47829640
2674,GdCl3,2.0064,7.56146407,7.56146407,4.07412500,90.00000000,90.00000000,120.00000065
2675,GeI4,1.996,12.92582600,12.92582600,12.92582600,90.00000000,90.00000000,90.00000000
2676,Cr4AgBiO14,2.0047,7.38139862,7.38139862,7.38139862,108.40324961,108.40324961,111.62894982
2677,GaS,2.0109000000000004,3.62691789,3.62691789,17.42527200,90.00000000,90.00000000,119.99999802
2678,VPO5,1.9890999999999999,7.01504600,7.42846511,7.57874872,90.96435184,89.87936407,115.38783626
2679,MoP2O7,1.985,8.40338000,4.98788600,7.06614511,73.85765944,90.00000000,90.00000000
2680,LiVP2O7,2.0129,8.29775200,7.05801300,9.10201504,65.42419456,90.00000000,90.00000000
2681,Mo(PO4)2,1.9815999999999998,12.94992000,4.98152300,10.89585155,84.96084249,90.00000000,90.00000000
2682,CsAu,1.9857,4.38106100,4.38106100,4.38106100,90.00000000,90.00000000,90.00000000
2683,LiCrPO4,2.0072999999999994,7.62461450,7.62461450,9.53012600,90.00000000,90.00000000,120.00000437
2684,HgPS3,1.9798,6.37766500,6.39130944,7.78219586,95.10298167,106.33659055,118.94557475
2685,K2Cr3O10,2.0028,18.24806100,7.65577400,9.83858696,50.07692679,90.00000000,90.00000000
2686,InBrO,2.0057,3.68820400,4.12550300,9.00969100,90.00000000,90.00000000,90.00000000
2687,H2CS3,1.9855,6.15016100,12.50474100,19.59835979,77.85869402,90.00000000,90.00000000
2688,RbGeBr3,1.9851,7.78259900,8.36803900,11.40551700,90.00000000,90.00000000,90.00000000
2689,Na4Br2O,1.9834999999999998,8.20524756,8.20524756,8.20524756,147.71474424,147.71474424,46.30663966
2690,Os2(CO)7,1.9992,9.60696474,9.60696474,11.99458142,89.83363864,89.83363864,88.42405174
2691,SbSeCl9,1.9981,11.65873400,9.73496600,13.54720947,76.45339141,90.00000000,90.00000000
2692,Li5NCl2,1.9859,9.85944563,9.85944563,9.85944631,21.35973750,21.35973750,21.35973941
2693,K5GaSe4,1.9817,12.78246300,13.04715800,15.90900900,90.00000000,90.00000000,90.00000000
2694,RbSnI3,2.0103999999999997,4.79079000,10.57289200,17.63615000,90.00000000,90.00000000,90.00000000
2695,Mg2Al2Se5,1.9853000000000005,3.91772493,3.91772493,16.50004500,90.00000000,90.00000000,119.99998185
2696,CsHgCl3,1.9872999999999998,13.71152031,13.71152031,9.69073700,90.00000000,90.00000000,120.00000149
2697,Cs6Cl4O,1.9928,9.66044439,9.66044439,9.66044454,89.25403268,89.25403268,89.25403030
2698,Ga(SbCl)4,2.0139,10.13157400,13.52340200,18.30142300,90.00000000,90.00000000,90.00000000
2699,Al2CdSe4,2.0058,6.84787659,6.84787659,6.84787659,129.15696101,129.15696101,74.75814766
2700,Li3Cr(PO4)2,1.9816000000000003,10.15117400,8.19655000,8.50648094,71.29058695,90.00000000,90.00000000
2701,Li3V2(PO4)3,1.9983,8.82951500,8.60256000,12.36853832,88.04351362,90.00000000,90.00000000
2702,Nd4Au2O9,1.9966,6.21206500,12.06232200,12.07584000,90.00000000,90.00000000,90.00000000
2703,PbF4,2.0001,5.24441731,5.24441731,5.24441731,130.73448652,130.73448652,72.23526513
2704,LiErS2,1.9886999999999997,6.69535714,6.69535714,6.69535714,132.45309818,132.45309818,69.51434212
2705,Li5NCl2,1.9964000000000002,3.65927300,6.75900900,9.24906679,85.10913235,90.00000000,90.00000000
2706,Al2CoO4,1.9794,5.78268933,5.78268933,14.15898761,89.65203420,89.65203420,59.84643796
2707,K3AsS4,2.0132,9.25380000,9.62351300,10.72065600,90.00000000,90.00000000,90.00000000
2708,K2UO4,1.9910999999999999,7.39535945,7.39535945,7.39535945,145.68724485,145.68724485,49.31154374
2709,In14Ga3Pt2O8F15,1.9925000000000002,16.05675865,16.05675865,16.05675847,26.01820213,26.01820213,26.01820297
2710,TaNO,1.9835000000000003,5.06896300,5.01114300,5.22874916,80.29407140,90.00000000,90.00000000
2711,As4S5,2.0069,8.47734900,8.09387700,8.26183723,77.36794901,90.00000000,90.00000000
2712,Mo2P2O11,1.9799,6.43802200,7.63206400,9.15167848,75.03934376,90.00000000,90.00000000
2713,Ti3PbO7,1.9906000000000001,3.83645000,6.68049400,10.83378318,82.19975491,90.00000000,90.00000000
2714,Ag6Mo10O33,1.9931,7.68842500,8.48130714,11.55226655,86.85006834,78.11979590,76.36305204
2715,Rb2PbO2,2.0092999999999996,7.74360400,8.00042900,10.64833591,85.19107121,109.69825947,118.68422712
2716,RbCr2FeO8,2.0017,5.54434800,8.97785100,14.97124400,90.00000000,90.00000000,90.00000000
2717,MnFeH4O2F5,1.9925,6.67308749,7.53931157,7.53923549,61.21129373,63.73850768,63.73605697
2718,TiIn2O5,1.9921999999999995,3.53644900,7.38241300,15.16067000,90.00000000,90.00000000,90.00000000
2719,U2V2O11,1.9830999999999999,13.21955800,6.14980800,7.37200325,59.84396113,90.00000000,90.00000000
2720,KInS2,2.0103,7.92070402,7.92070402,15.24651869,82.51745488,82.51745488,89.98973935
2721,NClO,1.9908,4.23503200,5.49458600,11.52728600,90.00000000,90.00000000,90.00000000
2722,MnAsO4,1.9986,5.07503600,6.14778800,10.28209400,90.00001489,90.00015704,90.00005054
2723,Ge(PbS2)2,1.9832,12.51248332,12.51248332,12.51248332,110.09673042,110.09673042,108.22731628
2724,MgAl6O10,1.983600000000001,5.70762978,5.70762978,23.38969811,82.90735263,82.90735263,60.26330238
2725,CsNaTe,1.9853999999999998,5.36076700,5.36076700,8.67694900,90.00000000,90.00000000,90.00000000
2726,Cs2Hg3I8,1.9987,12.02652453,12.02652453,8.10485478,84.27774197,84.27774197,143.22788325
2727,MnF4,2.0095,9.62885087,9.62885087,9.62885087,96.13532507,96.13532507,141.83604698
2728,K3IrCl6,1.9930000000000003,7.59373900,12.12582800,12.74652209,71.75437985,90.00000000,90.00000000
2729,KUVO6,1.9992999999999999,8.48435100,6.93248800,10.59547063,74.96173528,90.00000000,90.00000000
2730,Ba2FeO4,1.9953999999999998,6.23489985,7.75042000,10.34116828,90.00020874,94.28428222,90.00000003
2731,CrBiO3,1.9907999999999992,5.59996749,5.59994029,5.62117886,90.00011924,60.12464063,60.00024760
2732,ZnS,2.0147,3.85275277,3.85275277,88.21959000,90.00000000,90.00000000,120.00001329
2733,ZnS,1.9866,3.85301040,3.85301040,81.86687500,90.00000000,90.00000000,120.00000682
2734,TmMnO3,2.0075999999999996,5.27079300,5.81241900,7.45387100,90.00000000,90.00000000,90.00000000
2735,ReSbOF10,2.0037000000000003,6.69807500,8.20329700,8.22039538,85.48823172,90.00000000,90.00000000
2736,TcBi3O8,2.0020000000000002,11.72075700,11.72075700,11.72075700,90.00000000,90.00000000,90.00000000
2737,Mn2BiPO6,1.9981999999999998,5.44104900,8.22162600,12.32741600,90.00000000,90.00000000,90.00000000
2738,ZnS,1.9944000000000002,3.85289616,3.85289616,75.58036600,90.00000000,90.00000000,120.00000276
2739,ZnS,1.9888000000000001,3.85261795,3.85261795,75.59397400,90.00000000,90.00000000,119.99999912
2740,HgAs4(S2I)2,1.9941,15.89930400,10.09952500,12.51349208,51.75416999,90.00000000,90.00000000
2741,ZnS,2.0067000000000004,3.85357898,3.85357898,75.57291000,90.00000000,90.00000000,119.99998252
2742,MnBiAsO5,2.0087000000000006,7.01100726,7.87488844,9.40299890,77.77365928,93.34119258,68.39311736
2743,ZnS,2.0096999999999996,3.85335807,3.85335807,75.58751100,90.00000000,90.00000000,120.00000122
2744,BiXeF9,1.9935,5.89189200,8.06827777,8.95751927,101.51962024,107.47225612,87.07802057
2745,UTe2PbO8,1.9932000000000003,7.10091800,7.93168300,14.22243888,84.91565106,90.00000000,90.00000000
2746,SbS7IF6,2.0004,9.42226000,12.22649000,12.77359800,90.00000000,90.00000000,90.00000000
2747,Sr3U(Te2O7)2,1.9851000000000005,10.89485692,10.89485692,13.24355433,86.36075584,86.36075584,30.53204772
2748,KC(NO2)2,1.9993,7.67341916,7.67341916,9.15047742,75.97483683,75.97483683,61.05566727
2749,ZnS,1.9924,3.85353234,3.85353234,75.57171100,90.00000000,90.00000000,120.00000585
2750,ZnS,2.0042,3.85257987,3.85257987,75.57623200,90.00000000,90.00000000,119.99999777
2751,ZnS,2.0008999999999997,3.85146206,3.85146206,75.53898400,90.00000000,90.00000000,120.00000099
2752,ZnS,2.0047,3.85402290,3.85402290,50.39295100,90.00000000,90.00000000,120.00001548
2753,ZnS,1.9988000000000001,3.85369991,3.85369991,62.98738200,90.00000000,90.00000000,119.99999853
2754,NaSr3BiO6,1.9888000000000001,7.04864181,7.04864181,7.04864196,91.43522372,91.43522372,91.43523050
2755,ZnS,2.0047,31.57174406,31.57174406,31.57174423,7.01534624,7.01534624,7.01534592
2756,AuCS2Cl3,2.0005,9.43306891,9.43306891,11.61999038,65.70166983,65.70166983,69.19375486
2757,RbTl(SO4)2,1.9891,9.26504997,9.26504997,9.26504993,31.38542670,31.38542670,31.38542281
2758,ZnS,2.0073,3.85370351,3.85370351,62.98747800,90.00000000,90.00000000,119.99999163
2759,Bi6As9Se4S10(O4F13)5,2.0126,10.56819800,13.82006473,15.34688899,69.83926070,72.37141801,69.84237383
2760,ZnS,2.0157,3.85369099,3.85369099,62.98727700,90.00000000,90.00000000,119.99998260
2761,Ba2AlInO5,2.0122,5.93292185,5.93292185,19.98246000,90.00000000,90.00000000,119.99999835
2762,ZnS,2.0002999999999997,3.85425770,3.85425770,56.67484800,90.00000000,90.00000000,119.99999493
2763,ZnS,2.0152,25.25140555,25.25140555,25.25140516,8.75590349,8.75590349,8.75590496
2764,K2PbO2,1.9848999999999999,7.45422600,7.65825436,10.16413069,85.13777645,110.07669314,118.73063635
2765,ZnS,1.9952,3.85328638,3.85328638,69.24930200,90.00000000,90.00000000,120.00000648
2766,Ba4AgAuO6,1.9873,7.32453392,7.32453392,11.63172500,90.00000000,90.00000000,132.49996222
2767,ZnS,2.0038,3.85357848,3.85357848,56.70237400,90.00000000,90.00000000,120.00000827
2768,ZnS,2.0109000000000004,3.85401844,3.85401844,56.68973900,90.00000000,90.00000000,120.00000751
2769,V(SeO3)2,1.9892,11.53507100,11.53507100,7.92537900,90.00000000,90.00000000,90.00000000
2770,ZnS,2.0087,3.85356372,3.85356372,63.00424700,90.00000000,90.00000000,119.99999526
2771,Hg2Pb(SI)2,1.9929999999999999,13.81698900,13.81698900,4.71067600,90.00000000,90.00000000,90.00000000
2772,MoH2(CO2)2,2.0035000000000003,11.52396400,5.63685900,8.13826915,69.31105111,90.00000000,90.00000000
2773,NaTeH12(CO)3,2.0159,8.59139360,8.59139360,13.71329100,90.00000000,90.00000000,119.99999695
2774,Cr2HgO7,2.0146,7.61779303,7.61779303,9.66456000,90.00000000,90.00000000,119.99999154
2775,RbGeBiS4,1.9845,6.95945600,6.71937000,18.29053523,71.79404074,90.00000000,90.00000000
2776,LiV(GeO3)2,1.987,8.87554300,5.47302300,9.80838305,75.63460115,90.00000000,90.00000000
2777,Fe3(P2O7)2,2.0084,9.08172200,10.32635100,12.39696300,90.00000000,90.00000000,90.00000000
2778,ScIO,2.0147000000000004,10.25530764,10.25530764,7.26309956,86.83168993,86.83168993,21.87195554
2779,BaUTiO6,1.9820000000000002,8.65235700,6.62332300,10.29983798,76.88722747,90.00000000,90.00000000
2780,Ag2Mo2O7,1.9881999999999997,13.39814300,6.19747500,8.08421812,69.69116202,90.00000000,90.00000000
2781,MoSeS2Cl5,2.0114,10.15007988,10.15007988,14.22456086,66.68835748,66.68835748,57.67814830
2782,SbP2O7,1.9818000000000002,8.16391500,8.18399700,16.47388200,90.00000000,90.00000000,90.00000000
2783,CsMn2V2ClO7,1.9878000000000002,5.40999100,5.65171800,15.19317400,90.00000000,90.00000000,90.00000000
2784,SbH3CSCl6O,2.0032,20.16560900,6.77427500,10.60868687,60.36239248,90.00000000,90.00000000
2785,ZnS,1.9964,3.85405342,3.85405342,31.48751300,90.00000000,90.00000000,119.99999002
2786,ZnS,2.0142999999999995,3.85386835,3.85386835,62.97104500,90.00000000,90.00000000,120.00000608
2787,SiO2,1.9961,12.64648900,12.64648900,12.64648900,90.00000000,90.00000000,90.00000000
2788,K3Hg3S2Br5O6,1.999,6.31507400,12.91028000,23.01724200,90.00000000,90.00000000,90.00000000
2789,NaFe(SeO4)2,1.9791,5.02469516,8.98771753,8.76590625,68.93735806,101.79841276,75.93415929
2790,GePb3O5,1.9847000000000001,5.39763217,5.39763217,5.50092800,90.00000000,90.00000000,90.84107672
2791,CsPbBr3,2.0087,8.37036600,8.42533500,12.01129500,90.00000000,90.00000000,90.00000000
2792,Ca7NbSi2N9,1.9838999999999993,9.96507500,6.06582000,9.02428517,88.02954095,90.00000000,90.00000000
2793,La2CN3Cl,1.9945000000000004,8.29141507,8.29141507,3.95928800,90.00000000,90.00000000,108.69091108
2794,SbCNCl5,2.0104,6.41590000,11.42728700,13.07430052,88.76796894,90.00000000,90.00000000
2795,K4GeSe4,2.0003,13.47691400,13.47691400,13.47691400,90.00000000,90.00000000,90.00000000
2796,Sr3MoN4,2.0105,10.37763935,10.37763935,9.97244818,83.13050824,83.13050824,59.96159096
2797,NiH20(C4N5)2,2.0152,9.13508900,6.58165300,11.44278060,81.64694237,90.00000000,90.00000000
2798,CdI2,1.9792999999999998,4.33200665,4.33200665,44.45199700,90.00000000,90.00000000,120.00000998
2799,CaC2,1.98,6.08074500,6.08074500,6.08074500,90.00000000,90.00000000,90.00000000
2800,CdI2,1.9816000000000003,4.33379786,4.33379786,45.35168900,90.00000000,90.00000000,119.99999785
2801,Ba(BSe3)2,1.9798,6.93254976,6.93254976,10.64058500,90.00000000,90.00000000,111.73061337
2802,ZrI4,2.0148,8.85204700,8.94014600,18.54825439,77.30195474,90.00000000,90.00000000
2803,SbBr(OF3)2,1.9974000000000003,5.96119900,7.28053200,10.28495263,48.00563391,90.00000000,90.00000000
2804,Cs2U(Br2O)2,1.9861,10.02538900,6.68767600,10.16058283,74.88172742,90.00000000,90.00000000
2805,SeN,1.9927000000000001,7.27940159,7.27940159,6.79726213,80.20975342,80.20975342,90.15524688
2806,CaMg2N2,1.9919000000000002,3.55959328,3.55959328,6.12020000,90.00000000,90.00000000,119.99998662
2807,Cs3Sb2Br9,1.9801,8.14134647,8.14134647,9.91258700,90.00000000,90.00000000,120.00000382
2808,ZnS,1.9845000000000002,3.85225861,3.85225861,113.30076300,90.00000000,90.00000000,120.00001056
2809,HgH16(Br3N2)2,1.9933,9.12397500,9.12984700,9.48261400,90.00000000,90.00000000,90.00000000
2810,ZnS,1.9806000000000001,37.78446740,37.78446736,37.78446787,5.88244202,5.88244263,5.88244202
2811,CoSO4,1.9861,7.14223800,5.45640800,6.86062164,77.35491726,90.00000000,90.00000000
2812,CsHg2Br5,2.008,6.56869400,8.63027200,11.62938675,72.70746375,90.00000000,90.00000000
2813,AgPb2Br5,2.0141999999999998,9.16663832,9.16663832,8.09200719,84.58486366,84.58486366,46.14459070
2814,Pb13(Br3O5)2,2.0074000000000005,9.17117595,9.17117595,24.50915063,82.00616591,82.00616591,47.39918422
2815,RbV2SeO7,2.0138999999999996,5.53949000,7.20656000,18.86288700,90.00000000,90.00000000,90.00000000
2816,Zn(HO)2,1.9871999999999999,3.34921600,8.13849460,12.58907105,108.83808778,97.21723070,90.10080718
2817,Te(HO)6,2.0004999999999997,5.56750000,5.58280735,5.69873289,92.19482024,118.29675629,117.14917498
2818,H4N2O3,2.0118,7.05982300,8.25617700,8.62154500,90.00000000,90.00000000,90.00000000
2819,Si2H2O3,1.9861999999999997,9.22679900,10.69753227,12.03240435,75.71607010,67.57272000,64.61071008
2820,K6Cd4Sn3Se13,2.0061999999999998,10.34080381,10.34080381,10.34080372,94.97985468,94.97985468,94.97985465
2821,Pb4SeBr6,1.9956999999999998,9.65353821,9.65353821,10.17135553,59.32996063,59.32996063,26.42956967
2822,FeBN3O3F4,2.0124,7.50389600,9.19423700,12.94339006,52.59075740,90.00000000,90.00000000
2823,CsLi(H2N)2,2.01,6.50275473,6.50275473,8.51075900,90.00000000,90.00000000,120.00000741
2824,YbMgNiH4,1.9920999999999998,6.62761300,6.62761300,6.62761300,90.00000000,90.00000000,90.00000000
2825,ReF7,1.9956999999999998,5.16972200,5.20897629,9.29688487,90.86084668,93.41843179,114.25982324
2826,K2FeH4(SO5)2,2.0065999999999997,9.53843138,9.68130099,11.34695894,108.57332504,83.67585178,105.40042622
2827,K2LiAlP2,1.9856000000000003,8.62913872,8.62913872,8.62913872,138.43077079,138.15821503,60.45254535
2828,ZnS,1.9999000000000002,3.85513265,3.85513265,201.48987600,90.00000000,90.00000000,120.00001119
2829,NaGeSbO5,1.9839000000000002,5.66972902,5.66972902,7.35317785,75.05917751,75.05917751,105.40736852
2830,Fe2Co4Ge2(CO)21,1.9891,9.35717209,19.28317668,20.06736594,107.23764067,103.48224023,90.00000112