,pretty_formula,bandgap,cell_length_a,cell_lentgh_b,cell_lentgh_c,cell_angle_alpha,cell_angle_beta,cell_angle_gamma
9230,Li4SeO5,2.4751,5.29568607,5.29568607,7.95303310,83.25207535,83.25207535,66.85741590
9231,LiCrPO4,2.4589000000000003,5.06591278,5.06591278,16.79451230,88.88760371,88.88760371,88.58451656
9232,S4N5F,2.481,6.50688200,11.07943165,11.49968444,114.11241492,89.19050100,97.56432820
9233,CsSbO2,2.4644000000000004,6.55079697,6.55079697,5.67497261,70.26985968,70.26985968,101.42831007
9234,Pb3SeO5,2.4633000000000003,7.73976555,7.73976555,5.89842100,90.00000000,90.00000000,91.75824110
9235,MnSiO3,2.4641,10.27450598,10.27450598,10.27450598,109.12427508,109.12427508,110.16736258
9236,Ge2S3Br2,2.4625,9.43297300,10.57001997,10.73725997,93.63497257,115.92241700,90.03494657
9237,V2ZnO6,2.4532,5.06432559,5.06432559,6.79462810,72.69670866,72.69670866,41.06404207
9238,Bi5IO7,2.4650000000000003,9.70578005,9.70578005,13.49334183,73.87958770,73.87958770,25.37935449
9239,KMo(PO4)2,2.4812000000000003,11.97091700,5.18355000,12.70749765,67.13789190,90.00000000,90.00000000
9240,Li14Cr2N8O,2.4559,5.81298416,5.81298416,8.22629000,90.00000000,90.00000000,120.00000182
9241,AgClO4,2.4551,5.19289462,5.19289462,5.19289462,60.00000000,60.00000000,60.00000000
9242,LiNbO3,2.4628,5.54373600,5.54373600,5.54373555,56.75262760,56.75262760,56.75263102
9243,SnHg2(SBr)2,2.4891,10.27694300,10.51031600,11.97064757,71.41757094,90.00000000,90.00000000
9244,BiAsPbO5,2.4703,7.26666524,7.26666524,7.24256962,69.98597055,69.98597055,45.53850979
9245,Li5VP2(O4F)2,2.4560999999999997,10.93660400,6.45686200,10.52020955,89.98153718,90.00000000,90.00000000
9246,K3Nd3(PS4)4,2.4565,10.11134837,10.11134837,15.03599541,89.34222185,89.34222185,71.81675923
9247,TcO3F,2.4587000000000003,5.26265900,6.01755400,9.51785728,86.75122918,90.00000000,90.00000000
9248,RbAg(NO3)2,2.476,5.13311100,8.53448000,14.64608543,81.80364233,90.00000000,90.00000000
9249,Na4Ti5O12,2.4848000000000003,5.37207215,5.37207215,9.65303000,90.00000000,90.00000000,120.00000189
9250,LiMoAsO6,2.4743,8.70693900,5.23351300,10.49866475,84.81432494,90.00000000,90.00000000
9251,SiO2,2.4692,9.59877805,9.59877805,9.59877768,117.33407439,117.33407439,117.33406562
9252,NaNb4Tl3P2O17,2.4915000000000003,11.95444068,11.95444068,7.49101900,90.00000000,90.00000000,130.05342673
9253,Li6CaCeO6,2.4639999999999995,5.86726788,5.86726788,10.74252800,90.00000000,90.00000000,119.99999864
9254,BaWO4,2.4574,7.75974347,7.75974347,6.05210500,90.00000000,90.00000000,150.01885619
9255,RbSO4F,2.4909,5.63341500,5.75800075,7.75016328,100.35723054,106.56820793,93.93246419
9256,SrCr2O7,2.4835000000000003,11.34101700,11.34101700,9.82832700,90.00000000,90.00000000,90.00000000
9257,KVF3,2.4535,4.22538000,4.22538000,4.22538000,90.00000000,90.00000000,90.00000000
9258,As4S3,2.4852,7.07680400,10.78810100,12.12424400,90.00000000,90.00000000,90.00000000
9259,Li3Zn2SbO6,2.4665999999999997,5.30099017,5.30099017,5.27085166,79.97735521,79.97735521,119.76530302
9260,BaV(AsO4)2,2.4743000000000004,14.89803000,6.90667500,7.76216009,64.90821467,90.00000000,90.00000000
9261,Sn2WO5,2.4546,14.10663500,8.21719200,10.88744838,66.34596811,90.00000000,90.00000000
9262,MnB4O7,2.4583000000000004,6.43544000,8.30243324,8.30217047,78.36459566,110.67159263,110.66851619
9263,CaNb2P2O11,2.4776,9.35094155,9.35094155,5.29637405,87.06536278,87.06536278,71.87545322
9264,Na2TiS2O,2.482,13.72007400,5.79476900,6.92986745,66.72478862,90.00000000,90.00000000
9265,MnH2(CO2)2,2.465,5.93980400,7.64368700,9.64721300,90.00000000,90.00000000,90.00000000
9266,S,2.4783,5.66346900,9.63248900,15.71045900,90.00000000,90.00000000,90.00000000
9267,K6Ti2S6O,2.4831000000000003,10.47563600,13.12379300,13.46625782,74.12439467,90.00000000,90.00000000
9268,AsS(BrF2)3,2.4875000000000003,9.60021200,8.27350600,12.39208937,83.17640372,90.00000000,90.00000000
9269,Rb2CdSiO4,2.4868,8.06843953,8.06843953,16.93679500,90.00000000,90.00000000,92.36527094
9270,Nb2PbO6,2.4794999999999994,7.33912805,7.33912805,7.33912859,93.99041941,93.99041941,93.99042007
9271,Ba2Mn2Si2O9,2.4755999999999996,8.72292100,10.92765300,18.60846000,90.00000000,90.00000000,90.00000000
9272,Ba7Sc6Al2O19,2.4756000000000005,5.85715523,5.85715523,35.67451700,90.00000000,90.00000000,119.99999129
9273,UOF4,2.4777,8.03099111,8.03099111,8.03099147,114.43791264,114.43791264,114.43791523
9274,LiMoAsO6,2.4897,5.00568000,9.09604900,9.57260600,90.00000000,90.00000000,90.00000000
9275,AgCN3O2,2.4799,5.57427200,5.78825800,12.58828400,90.00000000,90.00000000,90.00000000
9276,Na6P4Pb3S16,2.4856000000000003,11.53424695,11.53424695,11.53424709,116.81847953,116.81847953,116.81847363
9277,Tb3Si2S8I,2.4577,8.77160406,8.77160406,10.69548107,81.83968362,81.83968362,51.95747271
9278,AgPb4ClO4,2.4592,8.45607800,8.45607800,6.55146700,90.00000000,90.00000000,90.00000000
9279,K2Cd(NO2)4,2.4568,6.69441900,12.02671100,12.44201300,90.00000000,90.00000000,90.00000000
9280,SXeO3F2,2.4655,10.27659100,10.41526200,10.55297400,90.00000000,90.00000000,90.00000000
9281,F2,2.456,3.20314634,3.20314634,7.25475430,79.52505703,79.52505703,61.60665443
9282,RbGaS2,2.4680999999999997,7.54403581,7.54403581,15.64164881,83.06708053,83.06708053,89.95672559
9283,K2CrSO7,2.4711999999999996,7.52305400,7.53030000,15.02335153,61.38321881,90.00000000,90.00000000
9284,SrCo2As2(H2O5)2,2.4850999999999996,13.10928800,7.59070100,9.23395044,65.46186892,90.00000000,90.00000000
9285,CsGaS3,2.4892000000000003,12.73744100,6.54818200,7.74615183,72.40544027,90.00000000,90.00000000
9286,CsNb2BiO7,2.4862,5.49111200,5.58750400,11.66247700,90.00000000,90.00000000,90.00000000
9287,ThV4O12,2.4803,16.05387739,16.05387739,16.05387739,148.34550735,148.34550735,45.37558519
9288,BaCeO3,2.4888999999999997,4.47419300,4.47419300,4.47419300,90.00000000,90.00000000,90.00000000
9289,PbI2,2.4543,4.66186343,4.66186343,15.84283100,90.00000000,90.00000000,119.99999197
9290,LiGaI4,2.4872,7.74673200,8.19309800,15.20520437,87.22826352,90.00000000,90.00000000
9291,Na3AlH6,2.4589,5.46783500,9.22359700,17.77279800,90.00000000,90.00000000,90.00000000
9292,K2CuCl3,2.4570999999999996,4.16776500,12.23904400,12.69238300,90.00000000,90.00000000,90.00000000
9293,K2SnCl6,2.4713000000000003,7.29233100,7.29233100,10.06924500,90.00000000,90.00000000,90.00000000
9294,CdI2,2.4514,4.33596625,4.33596625,68.61868800,90.00000000,90.00000000,120.00000389
9295,CdI2,2.4742,4.33587261,4.33587261,101.76493300,90.00000000,90.00000000,120.00000926
9296,P4N3Cl11,2.4877,11.53048700,15.22091500,15.27227274,65.42844143,90.00000000,90.00000000
9297,CdI2,2.4618,4.33453575,4.33453575,45.80621100,90.00000000,90.00000000,119.99999617
9298,Tl3BiI6,2.4866,9.27899000,13.96208500,14.01648142,75.66239812,90.00000000,90.00000000
9299,CdI2,2.4733,4.33571669,4.33571669,53.75888200,90.00000000,90.00000000,120.00001058
9300,CdI2,2.464,4.33656436,4.33656436,122.10049300,90.00000000,90.00000000,120.00000543
9301,CdI2,2.4657999999999998,4.33837392,4.33837392,65.07854800,90.00000000,90.00000000,119.99999874
9302,CdI2,2.4566999999999997,4.33910684,4.33910684,79.46546000,90.00000000,90.00000000,120.00001286
9303,CdI2,2.457,4.33788869,4.33788869,96.70980400,90.00000000,90.00000000,120.00001048
9304,CdI2,2.4520999999999997,4.33654463,4.33654463,98.92343500,90.00000000,90.00000000,120.00000966
9305,H7WC7NO5,2.4609,10.30442300,9.16090600,12.14712862,74.27364045,90.00000000,90.00000000
9306,HC2,2.4663,4.76227100,10.22836600,16.35924354,68.90081635,90.00000000,90.00000000
9307,K2NaV5H10O19,2.4840999999999998,8.74668500,10.51926064,11.15187941,110.76314290,87.26420836,114.35742780
9308,Pb2Se(NO4)2,2.4867,5.62790600,6.95379200,10.50141600,90.00000000,90.00000000,90.00000000
9309,Cs2HgBr4,2.479,8.18665700,10.51894500,14.44132300,90.00000000,90.00000000,90.00000000
9310,MoCl2,2.4697,9.38910970,9.38910970,11.56425700,90.00000000,90.00000000,104.04260335
9311,Ba(H2O3)2,2.4787,6.13247264,6.13247264,6.38435201,86.90982578,86.90982578,93.89676776
9312,Sr(H2O3)2,2.4593,5.87200098,5.87200098,6.05792322,89.42833321,89.42833321,96.36060479
9313,H3NO,2.4707999999999997,5.12448800,5.57050000,8.32417439,85.44119159,86.45030453,84.11241682
9314,Fe(HO)2,2.4707,3.32288925,7.39547202,7.33252818,101.94251367,89.99591763,89.95162355
9315,CrHO2,2.4775,4.50882100,9.97023000,3.04801300,89.99985585,89.99989278,89.99992740
9316,Fe4Si2Sn7O16,2.4623999999999997,6.94034702,11.68968793,11.69066350,72.84998513,107.27678425,72.73415128
9317,Mn2SnC10(BrO5)2,2.4829,7.76168000,15.46234900,17.11457422,69.52850887,90.00000000,90.00000000
9318,Fe2(CO)9,2.4764,6.44716194,6.44716194,16.13669500,90.00000000,90.00000000,119.99999934
9319,BaMgH4,2.4893,7.20063090,7.20063090,5.70762100,90.00000000,90.00000000,146.08738515
9320,CdHClO,2.4655,3.73493560,3.73493560,10.41954400,90.00000000,90.00000000,119.99999298
9321,Cs3VH8(Cl3O2)2,2.4814,10.35305444,10.35305444,10.35305444,145.63545942,131.79553164,60.53200432
9322,Fe4Ge(CO)16,2.4775,11.89549700,9.56153700,20.76239582,81.31432687,90.00000000,90.00000000
9323,OsC4ClO4,2.476,9.48153700,9.94221500,16.06322700,90.00000000,90.00000000,90.00000000
9324,K2ZnH12(SO7)2,2.4701,11.94155200,7.28940100,9.82606491,71.69871181,90.00000000,90.00000000
9325,Cs3Sb2Cl9,2.4583,7.75346800,13.28047600,18.96376600,90.00000000,90.00000000,90.00000000
9326,Bi6W4O21,2.4698,5.05780500,5.10072774,18.61962872,87.45557980,86.26522441,85.12147077
9327,Er2Zr8O19,2.4561,3.66230200,3.66230200,26.19377000,90.00000000,90.00000000,90.00000000
9328,Tl2SeO4,2.4715,6.38916976,6.38916976,8.14733665,89.78929303,89.78929303,116.62199761
9329,Zr4CdO9,2.484,16.88440222,16.88440222,6.11260378,88.94133497,88.94133497,11.91900221
9330,Tm2Zr8O19,2.4793,3.63333900,3.63333900,25.64021500,90.00000000,90.00000000,90.00000000
9331,Be(GaO2)2,2.4852,5.88376600,5.14158700,10.66949965,88.97189113,90.00000000,90.00000000
9332,KBa6Zn4(GaO3)7,2.4589999999999996,10.97135300,10.97952054,11.96538190,90.00248320,90.18581660,119.92086405
9333,Bi17P5Pb5O43,2.4608000000000003,11.66327119,11.66327119,11.65341734,61.89773084,61.89773084,92.92068439
9334,Li5Ti7In(PO4)12,2.4695,8.63524300,8.65012801,14.99834941,90.16937383,106.64950814,119.73278782
9335,Mn2InC10ClO10,2.454,8.83493000,9.96468625,10.48312144,116.73603364,91.70655694,93.31623904
9336,CsTaCo(OF2)2,2.4823,7.52160339,7.51971067,7.55343314,61.06729881,118.93900978,88.38146121
9337,Ca4Al11Si13(AgO16)3,2.4763,12.20683800,12.22660348,12.85027258,89.44972615,89.69447362,89.66944136
9338,P2WO8,2.4673,8.51056684,8.51056684,6.99866820,79.35247801,79.35247801,35.89930068
9339,Cs2NiF6,2.453,6.39939557,6.39939557,6.39939557,60.00000000,60.00000000,60.00000000
9340,V2Bi4O11,2.4896999999999996,5.53156400,6.77319724,7.92508239,83.50845000,87.49190399,73.03612437
9341,Ca6Ti5AlSi6O29F,2.4854000000000003,5.47736600,5.47784291,39.16856648,92.04592349,92.02653511,105.92578166
9342,La16Mg2Ga14O47,2.4521999999999995,5.53601100,9.68122116,18.53673074,100.36556893,90.69256806,90.57890830
9343,Y2Al9Si27(N15O)3,2.4673,7.89791000,7.92473089,17.23592894,89.95963104,90.18236958,119.64100739
9344,K2MnH2OF5,2.4713000000000003,6.09431020,8.34541603,6.28965559,90.00700627,98.43905526,90.00570997
9345,VH12C2S2(O2F)6,2.4625,10.08222470,10.08222470,6.64779865,77.20447524,77.20447524,41.19326658
9346,S,2.4880999999999998,6.63979685,6.63979685,6.63979723,113.09406432,113.09406432,113.09406891
9347,Cr2P4Pb3O16,2.4533,9.11049600,9.11049600,16.75098600,90.00000000,90.00000000,90.00000000
9348,K4Zr3Mn(PO4)6,2.4777,10.36498100,10.37655200,10.38096102,89.96424036,90.00000000,90.00000000
9349,Fe2(MoO4)3,2.4804,9.41047900,16.00988700,16.07196331,70.65914868,90.00000000,90.00000000
9350,TlNi4(PO4)3,2.4647,8.75270362,8.75270362,9.76835400,90.00000000,90.00000000,137.65100744
9351,Li2Co(PO3)4,2.4597999999999995,10.28333800,9.23189700,9.42744282,87.79130799,90.00000000,90.00000000
9352,Sr3La4O9,2.4848,7.45127400,9.46458647,10.69064850,79.59370902,70.74797223,73.24871981
9353,H3Ru3C10ClO9,2.4527,6.70424500,14.61713100,17.59314400,90.00000000,90.00000000,90.00000000
9354,GeH12(NF2)4,2.4748,6.29426000,11.94228200,13.66785500,90.00000000,90.00000000,90.00000000
9355,Rb4SnO4,2.4698,6.91074200,6.91654782,10.28380782,71.68982643,79.62315113,66.52660876
9356,Na3Cr2P2O8F3,2.4581999999999997,6.43040300,6.43354026,16.95396373,100.67400247,100.59288128,90.04798442
9357,Na2H6PtC4N4O3,2.4515000000000002,7.37148100,9.11242626,15.50620316,89.08727862,87.30040393,84.93871255
9358,CoH19S3N5O11,2.4873000000000003,16.01849700,6.72609600,13.56098823,84.25074365,90.00000000,90.00000000
9359,KUP(H2O3)3,2.4905999999999997,7.08863600,7.12814000,18.07864700,90.00000000,90.00000000,90.00000000
9360,Na5Te2H36AuO28,2.4835000000000003,5.99453900,9.01624532,12.79370327,98.14824932,98.45870189,92.70621984
9361,H3Ru3Rh(CO)12,2.4622,8.39274300,9.33865009,13.84468520,82.57777598,80.40950159,68.86393949
9362,Li3H6Rh,2.4521,4.74809600,8.45364400,8.54710800,90.00000000,90.00000000,90.00000000
9363,K4Mo3H4O17,2.468,8.61007700,8.65902870,12.47728139,103.22016719,104.41400664,103.78991577
9364,HgH4C4(NCl2)2,2.4703999999999997,11.87089800,8.65415800,16.64302745,60.70066943,90.00000000,90.00000000
9365,Sn2H10C4N2O9F2,2.4831,9.87051400,10.22449400,12.67229498,85.58602007,90.00000000,90.00000000
9366,CaFeSn(PO4)3,2.4913,8.96791799,8.96791799,8.96791802,58.14976364,58.14976364,58.14976126
9367,ErCrHO5,2.4551,11.59018800,8.20244400,11.27022972,46.86442751,90.00000000,90.00000000
9368,LiV5H18N2O19,2.4621,8.58116400,10.31353046,11.30350207,111.71414192,86.54934119,112.92401209
9369,Li2MnF6,2.4687,4.92996977,4.92996977,4.43567500,90.00000000,90.00000000,119.99999698
9370,LiCuCO3,2.4611,9.51246501,9.51246501,9.51246501,147.09198190,145.24673248,48.61173075
9371,Ba3(ClO)2,2.4532999999999996,6.34792700,10.79339300,12.63299900,90.00000000,90.00000000,90.00000000
9372,Li2CoSiO4,2.4577,7.36594345,7.66398825,8.21147547,117.81889152,116.00741284,89.99513564
9373,Sn3(OF)2,2.452,5.53556100,9.35303700,11.50599200,90.00000000,90.00000000,90.00000000
9374,Li7Mn(O2F)2,2.4911,6.19705731,9.57925054,9.56852671,83.85110860,75.27958221,94.21395697
9375,LiV(OF)2,2.4897,5.08605000,6.71041000,8.46496400,90.00000000,90.00000000,90.00000000
9376,Li4MnO2F3,2.4557,6.85025206,7.68513735,7.78869035,85.91131220,88.36596273,64.32106055
9377,HfCoO3,2.4807,5.40392000,5.43229400,7.82869300,90.00007878,90.00026957,90.00004230
9378,Li5Fe(SiO4)2,2.4664,5.24650040,5.24650040,6.29728957,89.77062648,89.77062648,90.91979451
9379,Li3CuS2,2.4741,7.95579433,7.95579433,7.95579433,109.47122063,109.47122063,109.47122063
9380,Li3BiS3,2.4516999999999998,7.74915174,7.74915174,7.74915190,54.79602296,54.79602296,54.79601981
9381,RbLi7(NiO3)2,2.4574,5.36553408,5.36553408,10.06262700,87.70303726,87.70303726,40.17701306
9382,Li3MnO3,2.4805,9.95461500,5.16922200,5.57945349,75.27418587,90.00000000,90.00000000
9383,Na2FePCO7,2.4664,8.39787049,8.46491210,8.91046485,93.24238515,91.48884358,77.95625570
9384,V2O5,2.4738,3.63468400,6.32489900,11.41933100,90.00000000,90.00000000,90.00000000
9385,Na2SnO3,2.4747,5.61509404,5.61509404,5.85071794,80.62135717,80.62135717,119.88426324
9386,Er2TeO6,2.4678000000000004,4.96990100,4.96990100,10.01958100,90.00000000,90.00000000,90.00000000
9387,Tb2WO6,2.4637000000000002,5.42258700,5.65900100,8.26117312,84.60872243,90.00000000,90.00000000
9388,Li3Fe(OF)2,2.4584,5.11444055,7.83277457,7.83277360,98.56858537,102.13577243,102.13577838
9389,Gd3SbO7,2.4797,6.56121082,6.56121082,7.60446000,90.00000000,90.00000000,109.42010782
9390,Li2MnCo(PO4)2,2.4608999999999996,4.77660666,10.44174732,6.08521052,90.12629346,89.94051947,89.99919464
9391,LiVF4,2.4524,6.67634017,6.67634017,6.64613942,73.79191991,73.79191991,35.57431558
9392,Ca2CeO4,2.4537999999999998,3.53302400,5.84851000,10.02701600,90.00000000,90.00000000,90.00000000
9393,Ba6HfO8,2.4527,7.69562129,7.69562129,7.69562129,60.00000000,60.00000000,60.00000000
9394,CsGdO2,2.4891,3.61671742,3.61671742,13.78966200,90.00000000,90.00000000,119.99998944
9395,Ca(LaI4)2,2.4691,10.79583354,10.79583354,12.46123100,67.78921644,67.78921644,62.60094592
9396,Li2FePCO7,2.4893,8.24464028,8.24614514,9.27766744,73.81624601,106.16508132,76.62082532
9397,Ho2Zr2O7,2.4831000000000003,7.47187149,7.47187149,7.47187149,60.00000000,60.00000000,60.00000000
9398,LiCrPO4,2.4917000000000002,9.22541700,6.48144700,5.08678900,89.99900936,89.99981674,90.00142405
9399,CoP2WO8,2.4568,4.95559392,10.18479457,5.98046200,90.00027991,89.99957720,92.46878321
9400,Li5VP2(O4F)2,2.4688,10.09538846,10.09538846,6.57593300,90.00000000,90.00000000,120.00000301
9401,LiFe4(PO4)3,2.4825,8.70705207,8.70705207,6.61124532,72.03655054,72.03655054,94.39465139
9402,Li2V(CO3)2,2.4831000000000003,7.87448800,7.87817910,8.48053355,68.81162711,68.82049406,76.89730135
9403,LiFe(PO3)4,2.4805,7.21207048,7.21207048,10.06200433,66.53833801,66.53833801,70.23578799
9404,Li2VPO4F,2.4724,5.16959900,11.50344200,13.16305100,90.00000000,90.00000000,90.00000000
9405,Li3VF5,2.4749,5.09513400,8.05783800,10.43294400,90.00000000,90.00000000,90.00000000
9406,Li3VF6,2.4736,5.12429200,8.56740200,9.78971100,90.00000000,90.00000000,90.00000000
9407,Li8Co(O2F)2,2.4757,6.34576153,9.86397236,9.18345766,97.62019911,76.81608074,91.21645644
9408,Li5V4O12F,2.4582,10.14424400,4.69309000,11.02622476,65.30798019,90.00000000,90.00000000
9409,LiVF6,2.4584,8.66172410,8.66172410,10.08802031,84.98863797,84.98863797,62.18604601
9410,Sn9(O2F5)2,2.4898,10.75027200,10.75027200,7.61293000,90.00000000,90.00000000,90.00000000
9411,LiMnF3,2.4534,5.32837962,5.32837962,15.38592200,90.00000000,90.00000000,119.99999526
9412,Li2VF4,2.476,5.38076811,5.38076811,5.38076811,134.37293541,134.37293541,66.50609328
9413,Li4MnOF4,2.4558,8.20886953,8.20890219,8.20889946,119.86128674,75.46042797,75.46028840
9414,Ba3Sr4O7,2.4591999999999996,13.76994077,13.76994077,13.76994077,164.11955293,157.39021342,27.75102488
9415,Na9Fe3P8O29,2.4657999999999998,10.18181436,10.18181436,14.71585100,90.00000000,90.00000000,120.00000236
9416,Na4Ti7O16,2.4778,6.03373400,5.51814500,9.58328672,88.77096210,90.00000000,90.00000000
9417,Li3MnFeCo(PO4)3,2.4589,10.43142385,6.08901000,14.29127252,90.00000000,89.93187075,90.00000000
9418,LiTi2(PO4)3,2.4887,8.66075408,8.66075408,8.65472984,60.03631853,60.03631853,60.43901018
9419,Li4Ti7O16,2.4512,5.84962991,5.84962991,9.70109247,89.97286371,89.97286371,60.98300394
9420,LiMnF4,2.4840999999999998,5.29789100,6.97704200,8.82994500,90.00000000,90.00000000,90.00000000
9421,Li8Mn(O2F)2,2.4675000000000002,5.68516989,5.68516989,10.88214000,90.00000000,90.00000000,119.47845378
9422,NaVPO5,2.4573,6.35528100,6.35533400,10.53669200,90.00000000,90.00000000,90.00000000
9423,Li2CoSiO4,2.4869,5.37625621,5.37729436,12.37123933,89.98633577,90.01441981,109.75266799
9424,Li2VOF4,2.4817,5.25236000,8.57861805,9.39020957,90.65545027,93.32646880,92.16472748
9425,Li2FeOF3,2.4876,5.80709000,5.29003400,9.84287206,82.76339815,90.00000000,90.00000000
9426,V2OF7,2.4732000000000003,5.97817498,5.98458529,5.99913678,117.35821272,64.12694002,84.21856580
9427,Li2NiP2O7,2.4724000000000004,7.56002616,7.56002616,10.95965048,88.74569287,88.74569287,117.14953217
9428,Li5VF8,2.4829999999999997,5.17230987,5.17230987,5.96311100,90.00000000,90.00000000,111.52550029
9429,LiTi3Sb(PO4)6,2.4673,8.83051547,8.83051547,8.83051558,58.50240473,58.50240473,58.50240306
9430,LiFeP2O7,2.4515,5.16133200,8.14329500,13.66739286,69.97843608,90.00000000,90.00000000
9431,CeZr9O20,2.4825999999999997,6.46175100,7.43153027,8.20935677,77.23293671,75.28285167,72.06121965
9432,P5(WO6)4,2.4817,9.59852175,9.59852175,15.42235003,64.09022320,64.09022320,52.68197413
9433,Li2Co(CO3)2,2.455,6.49175356,7.92947728,9.78110651,89.99322508,76.01613199,89.99955868
9434,Gd2As4O11,2.4894,6.70862929,6.70862929,16.42841889,83.82995341,83.82995341,47.17848544
9435,Li2VF5,2.488,6.70457800,7.45598900,8.10121900,90.00000000,90.00000000,90.00000000
9436,Li2VP2O7,2.455,7.43194803,7.43194803,11.68354093,88.61801110,88.61801110,121.12441862
9437,Li2FePCO7,2.4552000000000005,6.50418300,9.37477884,10.11777024,62.76196040,89.63649125,89.35455479