,pretty_formula,bandgap,cell_length_a,cell_lentgh_b,cell_lentgh_c,cell_angle_alpha,cell_angle_beta,cell_angle_gamma
8609,ThV2PbO8,2.4509,6.26121204,6.26121204,6.26121204,106.07605109,106.07605109,116.49847088
8610,Te3H9Br13O4,2.4173,9.58853500,9.61090259,10.33351813,114.60277945,114.49375977,95.49408164
8611,SrTiFeBiO6,2.4193,7.98600274,9.75921184,7.98822598,114.05001289,89.70940140,114.03176311
8612,TaTiSbO6,2.4483,4.89873100,5.56348994,8.69563782,91.30547352,106.29305931,90.37934920
8613,RbTi3NbO9,2.4247,3.85186300,6.43783000,15.17372100,90.00000000,90.00000000,90.00000000
8614,PrPaO4,2.4285000000000005,3.87021300,3.87021300,5.59544800,90.00000000,90.00000000,90.00000000
8615,Rb7VSiO8,2.4378,10.57819000,6.50984400,21.07590724,86.75363491,90.00000000,90.00000000
8616,Pr2ScNbO7,2.4444000000000004,7.56656850,7.56656850,7.56656850,120.48140725,119.51348676,90.00646574
8617,Rb2Mo2P2O11,2.4189,10.39071500,10.15689500,10.17903738,82.28681869,90.00000000,90.00000000
8618,Pr2Si2PbS8,2.4148,9.08159716,9.08159716,10.28212634,65.24340252,65.24340252,60.29462671
8619,NaNd3PtO7,2.4399,5.74757259,5.74757259,12.06242490,76.69323657,76.69323657,61.69787038
8620,MgTi4(PO4)6,2.4164000000000003,8.58056757,8.58056757,8.58056693,60.57659549,60.57659549,60.57659300
8621,LiB12PC,2.4236000000000004,7.12658813,7.12658813,7.12658813,132.21526944,110.33698480,88.88501197
8622,LaPrCr2O6,2.4395999999999995,5.56844900,5.59880700,7.88302900,90.00000000,90.00000000,90.00000000
8623,KNb4AsO13,2.4210000000000003,7.48686803,7.48686803,10.19735700,90.00000000,90.00000000,90.92948923
8624,KNaTi4(BiO6)2,2.4333,5.67150754,5.67150754,9.66100319,73.45881781,73.45881781,58.92589157
8625,LaTi6(PO4)9,2.4212999999999996,8.98191200,12.29922859,14.54391463,113.23290611,105.61465188,95.26963750
8626,K2Mo2P2O11,2.4334,10.30040000,10.03835400,10.06067308,81.80227319,90.00000000,90.00000000
8627,HfTi(PbO3)2,2.4153000000000002,5.83455395,5.83455395,5.83455395,121.42790911,121.42790911,87.54408496
8628,Fe2Pb(SeO3)4,2.4224000000000006,6.98344994,9.42603443,9.36252741,68.70663282,95.72885490,90.00711531
8629,Gd7Y5Nb4O28,2.4301,6.54260300,7.56597736,12.59656883,89.92624991,79.30883804,89.95473725
8630,Gd2NbInO7,2.4358,7.50913374,7.50913374,7.50913374,121.02323689,119.03742757,89.95608199
8631,Cs3K5Mo8(P2O11)4,2.4503,10.02900800,10.29508661,10.36214144,90.02056818,90.08144164,100.08550257
8632,CaNdCrO4,2.4357,6.62137161,6.62137161,6.62137161,145.99058405,145.99058405,48.86074893
8633,Ca2LaGeS4Cl3,2.4465,9.85541747,9.85541747,6.39583200,90.00000000,90.00000000,121.46999091
8634,Ba4SiGeS8,2.4345,6.86025000,9.06367200,12.46545200,90.00000000,90.00000000,90.00000000
8635,Ba5As2(SO6)2,2.4183000000000003,7.84953900,10.70101300,10.70552599,60.08670371,90.00000000,90.00000000
8636,B3Pb10Br3O13,2.4392,9.63424163,9.63424163,17.15770530,68.44708365,68.44708365,56.44077236
8637,Mg2VP3O11,2.4214999999999995,7.17623100,6.32767100,18.50883722,81.21145506,90.00000000,90.00000000
8638,Li2O,2.4335,10.72756756,10.40012557,9.37080373,90.64512106,89.05603279,93.60072431
8639,YGaN2,2.4272999999999993,5.86372797,6.98796872,5.83806338,90.00000000,109.34840722,90.00000000
8640,Li6SN4,2.4471000000000003,6.31275500,6.31275500,4.87513900,90.00000000,90.00000000,90.00000000
8641,AlCrF5,2.4455999999999998,5.27135294,5.27135294,5.27135294,139.34926499,106.18023380,87.85924354
8642,Sr2YAlFe2O7,2.4415999999999998,11.77388344,11.77388344,11.77388368,152.48682894,151.18048336,40.26642366
8643,CaLa2MnO6,2.4224999999999994,5.85449589,11.34297882,8.15102519,92.62242035,89.99955541,90.00285764
8644,Sr2FeWO6,2.4314,5.74668694,5.66322939,9.85443671,73.29002316,105.36798498,119.51406433
8645,Mg2CoWO6,2.4333,5.18106195,5.32837743,7.78690572,89.98886117,90.27091629,90.03301255
8646,Na5AlO4,2.4192,5.96427800,10.28152200,18.04662200,90.00000000,90.00000000,90.00000000
8647,Na3VP8O23,2.4174000000000007,12.17756500,12.17756500,12.17756500,90.00000000,90.00000000,90.00000000
8648,La4Si2Se3O7,2.415400000000001,11.45046435,11.45046435,11.45046435,114.67610153,114.67610153,99.49861794
8649,Ca4Ti3O10,2.4382,5.44465100,5.52786100,27.17890800,90.00000000,90.00000000,90.00000000
8650,ZnCoP2O7,2.4488,6.41364858,8.37837160,10.34027591,89.18880716,106.52028821,79.60951098
8651,Li2CoSn(PO4)2,2.4366,5.92636593,9.87674385,12.03188189,80.37622060,89.76073540,90.08944150
8652,SrVPO6,2.4511,9.88749900,5.61900000,8.58974085,88.26855130,90.00000000,90.00000000
8653,TlMoPO6,2.4256,10.25189060,9.73211443,8.47710965,68.12580465,61.75764104,50.11655431
8654,CrCdO4,2.4431,7.23768547,7.23768547,7.19520320,81.55925559,81.55925559,85.98377291
8655,YbS,2.444,4.00490856,4.00490856,4.00490856,60.00000000,60.00000000,60.00000000
8656,K2MnV2O7,2.4337999999999997,5.67585500,8.76127300,8.76127300,90.00000000,90.00000000,90.00000000
8657,SrGa4O7,2.4345999999999997,8.26415841,8.26415841,5.77642166,77.27040229,77.27040229,68.64246249
8658,CsV3(TeO6)2,2.4356,7.27519056,7.27519056,11.86958100,90.00000000,90.00000000,120.00000506
8659,KAg(NO3)2,2.4229,5.03485400,8.44685600,14.45032536,80.27600621,90.00000000,90.00000000
8660,Na2Si2Se5,2.4355,9.55505493,9.55505493,11.11321000,90.00000000,90.00000000,90.63316646
8661,LiTi2(PO4)3,2.4407,8.61194411,8.61194411,8.61194390,60.08291598,60.08291598,60.08290840
8662,RbFe(MoO4)2,2.4314,5.78839688,5.78839688,7.87729800,90.00000000,90.00000000,120.00001007
8663,ScCrO3,2.4330999999999996,5.08888400,5.40796100,7.55396800,89.99998182,90.00002643,90.00002185
8664,MgCrO4,2.4385,5.06723850,5.06723850,6.48492500,90.00000000,90.00000000,113.54408682
8665,Rb2W2O7,2.423,3.90410277,6.26950652,14.66752615,90.00000000,90.00000000,90.07621498
8666,BaCoP2O7,2.4469000000000003,5.38129200,7.51215223,7.68533507,102.98259887,91.75941508,93.91490580
8667,Li2MnO2,2.4365999999999994,3.22602800,3.22602783,5.33402600,90.00000000,90.00000000,120.00000179
8668,Cr2O3,2.4343,5.06975200,5.47253981,5.06981880,117.59593327,119.99961285,90.00006706
8669,InPS4,2.4231000000000003,6.17524968,6.17524968,6.17524968,124.27386462,124.27386462,82.74426091
8670,Mn4Be3Ge3SO12,2.4273999999999996,8.55732900,8.55732900,8.55732900,90.00000000,90.00000000,90.00000000
8671,Li3VF6,2.4336,8.54750277,8.54750277,10.27292026,84.85735393,84.85735393,62.21739462
8672,FeF3,2.4402000000000004,5.46086379,5.46086379,5.46086302,58.02587932,58.02587932,58.02588208
8673,PbI2,2.4334,8.32871321,8.32871321,8.32871330,32.66987933,32.66987933,32.66988085
8674,BiSbO4,2.4242,6.55981669,6.55981669,5.60701742,76.61897852,76.61897852,44.68730253
8675,KAs4IO6,2.4512,5.36329636,5.36329636,9.56356300,90.00000000,90.00000000,120.00000444
8676,Sr2Co(ClO)2,2.4427999999999996,5.77616849,8.25905115,5.77613542,110.47914253,90.11371883,89.95216000
8677,Ge(Bi3O5)4,2.4228000000000005,8.91855131,8.91855131,8.91855131,109.47122063,109.47122063,109.47122063
8678,Ti3(BiO3)4,2.4396000000000004,16.93558594,16.93558594,5.47042500,90.00000000,90.00000000,161.18667995
8679,Cs3Cu2I5,2.4429,10.41957900,11.83941400,14.59253500,90.00000000,90.00000000,90.00000000
8680,GeBi2O5,2.4339,3.97117600,11.08617700,11.19724900,90.00000000,90.00000000,90.00000000
8681,KIO4,2.4329,7.66930548,7.66930548,7.66930548,135.10240482,135.10240482,65.37112712
8682,RbMnH4Cl3O2,2.4248,6.63518900,7.31591796,8.98696464,91.26314094,107.60419699,112.10082123
8683,CrHO2,2.4303,3.04076442,4.36961474,4.94854274,90.00000000,90.00000000,90.00000000
8684,V2CoP2(H4O7)2,2.4415,6.34976258,6.34978922,8.09282312,66.90019056,113.09967929,89.99964115
8685,TlH4NCl4,2.4231999999999996,9.46317156,9.46317156,9.46317156,135.26251173,135.26251173,65.12258813
8686,CoH4(BrO)2,2.4167,3.81121302,5.91791171,5.91791171,95.30576068,97.57344448,97.57344450
8687,K2LiAlH6,2.4455999999999998,5.52827395,5.52827395,5.52827395,60.00000000,60.00000000,60.00000000
8688,H12OsN5Cl3O,2.4267000000000003,6.91772509,6.91772509,6.91772509,113.07049216,113.07049216,102.49023994
8689,V2O5,2.4196,3.61929800,10.17714900,10.33393100,90.00000000,90.00000000,90.00000000
8690,TiPO4F,2.4402,5.24595600,5.24689708,7.45094035,107.03639547,109.39802072,95.76528369
8691,LiFe3(P3O10)2,2.4394,8.42227151,8.42227151,12.32708200,90.00000000,90.00000000,104.93227824
8692,SnPO4,2.4403000000000006,4.91554400,8.26990600,18.45258900,90.00000000,90.00000000,90.00000000
8693,Sn2IF3,2.4336,7.39768602,7.39768602,9.35353400,90.00000000,90.00000000,145.66205601
8694,TlCdI3,2.4254,4.49742100,10.39580700,16.63770400,90.00000000,90.00000000,90.00000000
8695,Xe(OF)2,2.4288999999999996,4.60701188,4.60701188,8.87888700,90.00000000,90.00000000,91.07311688
8696,PaCl5,2.4206000000000003,7.44655003,7.44655003,8.47692126,81.38941640,81.38941640,109.73871594
8697,S8O,2.4236,8.53297500,8.72448100,14.21235300,90.00000000,90.00000000,90.00000000
8698,Na6Ge2S7,2.4467,7.00059137,7.00059137,15.24210088,80.37715628,80.37715628,98.01633451
8699,NbCl3O,2.4319,11.80775000,11.80775000,3.87029100,90.00000000,90.00000000,90.00000000
8700,Na3ReO5,2.4449,5.60196612,5.60196612,13.81995200,90.00000000,90.00000000,120.00000136
8701,CdI2,2.4364,4.33489508,4.33489508,15.00053000,90.00000000,90.00000000,119.99998601
8702,SnPCl9,2.4343999999999997,7.41626000,9.35947502,10.00198508,101.10311114,96.57778926,95.16408806
8703,Nd2GeO5,2.4351000000000003,7.33018700,7.05502500,10.17739598,72.36884290,90.00000000,90.00000000
8704,NaInI4,2.4484,8.17744500,8.74266900,16.16163844,86.88968337,90.00000000,90.00000000
8705,NaLiSe,2.4337,4.27993900,7.20731300,7.77681900,90.00000000,90.00000000,90.00000000
8706,Nb2Se4O13,2.4198,6.89968300,7.75754200,11.69262319,70.82394335,90.00000000,90.00000000
8707,Bi3ClO4,2.451,10.22250758,10.22250758,5.79233360,73.94127598,73.94127598,32.94971935
8708,VXe2F17,2.4284999999999997,9.02038000,9.16339900,18.27305768,62.61302504,90.00000000,90.00000000
8709,Rb3Bi2I9,2.4206,8.45412600,15.09137700,25.94747331,56.05994482,90.00000000,90.00000000
8710,SbKrF7,2.4272,10.72288800,5.49540900,11.21158511,84.66662190,90.00000000,90.00000000
8711,TlSbO3,2.4362000000000004,8.14642319,8.14642319,8.14642363,38.75211283,38.75211283,38.75211499
8712,YAgO2,2.4238999999999997,3.54414423,3.54414423,12.55083000,90.00000000,90.00000000,120.00000422
8713,Zn3(PS4)2,2.4313999999999996,7.90561600,7.90561600,9.20190500,90.00000000,90.00000000,90.00000000
8714,Sr3MoN4,2.4366,9.79806100,10.57687300,11.68246600,90.00000000,90.00000000,90.00000000
8715,CaHN,2.4395,3.79468946,3.79468946,3.79468946,124.30591114,124.30591114,82.69087676
8716,ZrSO,2.4206000000000003,5.77247900,5.77247900,5.77247900,90.00000000,90.00000000,90.00000000
8717,Mg(GaO2)2,2.4178,5.93148303,5.93148303,14.49515608,89.92184454,89.92184454,60.55932405
8718,SnHgF6,2.4327,6.04769224,6.04769224,6.04769216,55.42593412,55.42593412,55.42592559
8719,Li2TiO3,2.4179999999999997,5.05918531,5.05918531,5.08653591,78.81778154,78.81778154,117.90067256
8720,CaGe2O5,2.4488,5.56154154,5.56154154,6.98504281,76.12672259,76.12672259,106.31914531
8721,Rb3NbS4,2.4442,9.71679300,9.88508500,11.28878500,90.00000000,90.00000000,90.00000000
8722,Mg(GaO2)2,2.4348999999999994,5.91929294,5.91929294,5.91929294,120.40297733,119.20835128,90.34002540
8723,NaCaTaTiO6,2.4439,5.55056900,5.45648400,9.48649744,54.81666325,90.00000000,90.00000000
8724,SrLaNbZnO6,2.4155999999999995,5.72102278,5.72102278,5.72102278,60.00000000,60.00000000,60.00000000
8725,TiCdO3,2.4156,5.35976500,5.49431800,7.81224500,90.00000000,90.00000000,90.00000000
8726,Pb5SO8,2.4485,12.00588100,7.48502200,11.91545491,89.05872228,90.00000000,90.00000000
8727,Fe2PH2CO7,2.4334999999999996,4.90288600,8.12545100,15.82057039,64.31888497,90.00000000,90.00000000
8728,Ca4Nb2O9,2.4271000000000003,8.09693000,9.86572471,11.42548421,107.31906827,88.56073995,112.84671416
8729,Tb2TiO5,2.4300000000000006,7.27676700,7.38028716,18.25830895,87.91525733,88.12314165,62.50304892
8730,KAuF4,2.4155,7.25491940,7.25491940,7.25491940,129.46780949,129.46780949,74.25900409
8731,Ca4Nb2O9,2.4213,8.13717300,9.84552602,11.41193018,107.58997573,88.55074842,113.03971150
8732,Ca3(BN2)2,2.4178,7.39830300,10.28088500,10.49129400,90.00000000,90.00000000,90.00000000
8733,K3ReC4(N2O)2,2.4164,6.47069800,7.03899904,7.57400375,106.80702451,110.86498249,105.24529681
8734,CsUN3O11,2.4216,8.75884388,8.75884388,8.75884413,68.59567669,68.59567669,68.59568151
8735,Ta2Hg3S(O2F5)2,2.4424,12.30912150,10.48936124,9.30622782,76.63821534,56.00576461,47.35602005
8736,Ge2C2(SeF2)3,2.423,11.62696670,11.62696670,11.62696670,60.00000000,60.00000000,60.00000000
8737,K3Nd(PS4)2,2.4434,17.24130200,9.24675600,9.66927553,89.23204345,90.00000000,90.00000000
8738,Na4CO4,2.4253,5.80716895,5.80716895,5.80716895,99.92971695,99.92971695,130.92874772
8739,RbGeIO6,2.4469,5.11433745,5.11433745,6.52555200,90.00000000,90.00000000,119.99999292
8740,CaTa2O6,2.4425999999999997,7.85686800,7.85686800,7.85686800,90.00000000,90.00000000,90.00000000
8741,La2Ni2O5,2.4505,7.89763200,7.52484400,10.43606885,49.01667985,90.00000000,90.00000000
8742,Bi2WO6,2.4391000000000003,8.46341033,8.46341033,8.34198053,78.60600226,78.60600226,26.33075995
8743,RuO4,2.4250999999999996,9.08862800,9.08862800,9.08862800,90.00000000,90.00000000,90.00000000
8744,VPbClO3,2.4170999999999996,5.35928900,7.31246100,10.57038800,90.00000000,90.00000000,90.00000000
8745,K3VCO8,2.4278,6.57163935,6.57163935,5.71178516,67.36849994,67.36849994,91.34429933
8746,MnCrF5,2.4302,5.43416175,5.43416175,7.51948572,69.70123169,69.70123169,72.35506694
8747,Sr(ClO2)2,2.4312,7.30758511,7.30758511,6.03147900,90.00000000,90.00000000,131.02793565
8748,BaU(SiO4)2,2.4202000000000004,8.87131385,8.87131385,7.70589400,90.00000000,90.00000000,142.28294764
8749,Na2MnF5,2.4314,5.33229300,7.85296200,11.01800425,71.28416218,90.00000000,90.00000000
8750,Fe5(SiO4)3,2.4248,10.28442579,10.28442579,10.28442579,109.47122063,109.47122063,109.47122063
8751,TlInSiS4,2.4357,7.72303900,12.68734800,16.85348000,90.00000000,90.00000000,90.00000000
8752,Sr3Fe2(SeO3)6,2.4393000000000002,14.35921045,14.35921045,14.35921042,36.19376963,36.19376963,36.19376840
8753,Ba3TiNb4O15,2.4294,12.69056100,12.69056100,4.13440300,90.00000000,90.00000000,90.00000000
8754,K2Mo2H8O15,2.4362000000000004,6.43289100,9.88203645,11.42819186,77.59563126,79.81770333,73.59413475
8755,MoSeCl7O,2.442,8.17154400,8.57027856,9.98508401,89.61958062,113.03357790,108.55392259
8756,S,2.446,7.81767900,11.16927700,17.36298043,51.44522114,90.00000000,90.00000000
8757,K2Ca(NO2)4,2.4232,5.47113253,5.47113253,11.44038345,87.49738857,87.49738857,67.59243784
8758,NaMo2P3O13,2.4504,6.46516900,7.58691729,11.35779669,75.44815473,85.34279953,79.38509981
8759,Ag2P2PbO7,2.4212,5.50616303,7.10518171,10.42408391,107.91683852,93.26550110,111.31539695
8760,RbCr2BiO8,2.4216,5.76568700,10.25961600,13.45428100,90.00000000,90.00000000,90.00000000
8761,ZrVF6,2.416,5.86871475,5.86871475,5.86871475,60.00000000,60.00000000,60.00000000
8762,TlSbO3,2.4363,5.41372579,5.41372579,15.04376800,90.00000000,90.00000000,119.99999741
8763,Li9S3N,2.4444,5.51606600,5.51606600,5.51606600,90.00000000,90.00000000,90.00000000
8764,BaGe2O5,2.4414,13.26971900,9.69559900,13.40660810,85.95011706,90.00000000,90.00000000
8765,K2UAs2O9,2.4248,5.79354100,12.77036400,13.51120700,90.00000000,90.00000000,90.00000000
8766,Na17Al5O16,2.4425,16.89021249,16.89021249,6.03477395,84.92359300,84.92359300,159.43667264
8767,AsS4N5F6,2.4452,6.75544400,12.22720700,12.94470732,84.41028713,90.00000000,90.00000000
8768,Ba3Fe2Cl2O5,2.4504,8.77834449,8.77837607,8.77835078,109.32799686,109.58022264,109.50552510
8769,K3V(SO)2,2.4361,7.39834100,10.70643600,11.82921248,58.17258961,90.00000000,90.00000000
8770,LaPS4,2.4278,12.58954367,12.58954367,12.58954367,127.24321453,127.24321453,77.85423921
8771,Ni3Mo2SeO11,2.4280999999999997,6.54992800,6.55277410,10.16688021,74.07341486,86.37084965,84.81289597
8772,Ba2CuIO2,2.4387,4.45088300,11.16025700,14.24423914,88.61122492,90.00000000,90.00000000
8773,USb3O2F17,2.4476999999999998,12.64894800,11.33048700,13.40831387,59.08313276,90.00000000,90.00000000
8774,S,2.4271,6.05936900,10.34384173,15.54443531,95.13797164,97.95035588,100.77510675
8775,CoAg(NO3)3,2.4274,7.42284400,7.80139700,14.89911750,61.46125529,90.00000000,90.00000000
8776,SrCrF4,2.4223,6.96205226,6.96205226,6.96205226,133.10578006,130.12828171,70.86175667
8777,PdC2S2(O4F)2,2.4461,15.17568200,7.60246000,11.43317894,49.59922879,90.00000000,90.00000000
8778,PbI2,2.447,4.66129398,4.66129398,22.30473100,90.00000000,90.00000000,119.99999977
8779,PbI2,2.4177,4.66309772,4.66309772,53.25963600,90.00000000,90.00000000,119.99999597
8780,CdI2,2.4173,4.33201608,4.33201608,44.45656600,90.00000000,90.00000000,120.00000125
8781,AlAs3(SeCl)4,2.4318,12.51978918,12.51978918,14.48857961,59.31209653,59.31209653,63.65856827
8782,RbSn2Br5,2.4249,9.73425386,9.73425386,9.73425386,127.96982171,127.96982171,76.67392081
8783,InBr2,2.4203,8.06913000,10.70084000,10.77920000,90.00000000,90.00000000,90.00000000
8784,RbTaN2,2.4442000000000004,6.10515300,12.23563700,17.22112800,90.00000000,90.00000000,90.00000000
8785,Cd2Os(CN)6,2.4507,6.45403142,6.45403142,6.63650000,90.00000000,90.00000000,119.99999406
8786,CdI2,2.4318999999999997,4.33749760,4.33749760,125.80690100,90.00000000,90.00000000,119.99999397
8787,PbI2,2.4295,15.38236498,15.38236498,15.38236518,17.48341620,17.48341620,17.48341483
8788,CdI2,2.4192,4.33335344,4.33335344,59.24904600,90.00000000,90.00000000,119.99999144
8789,CdI2,2.4216,4.33085436,4.33085436,59.39884800,90.00000000,90.00000000,120.00000550
8790,CdI2,2.4158,4.33255328,4.33255328,59.26567500,90.00000000,90.00000000,119.99998906
8791,CdI2,2.4222,4.33130374,4.33130374,59.42633700,90.00000000,90.00000000,119.99999609
8792,CdI2,2.4167,4.33345019,4.33345019,59.35997600,90.00000000,90.00000000,120.00000283
8793,NbAsPCl13,2.4431000000000003,9.78837128,9.78837128,12.11086000,90.00000000,90.00000000,114.85519392
8794,CdI2,2.4254,4.33676778,4.33676778,100.60840400,90.00000000,90.00000000,119.99999659
8795,NbP2NCl12,2.4316,8.31967474,8.31967474,15.92642667,78.47739380,78.47739380,65.81138919
8796,CdI2,2.417,4.33334401,4.33334401,37.01754000,90.00000000,90.00000000,120.00000017
8797,CdI2,2.4284,4.33578975,4.33578975,100.78164000,90.00000000,90.00000000,119.99999623
8798,CdI2,2.4445,4.33473644,4.33473644,45.13488800,90.00000000,90.00000000,120.00000668
8799,CdI2,2.4177999999999997,4.33246410,4.33246410,44.53067900,90.00000000,90.00000000,120.00000152
8800,CdI2,2.4173999999999998,4.33233820,4.33233820,44.44308500,90.00000000,90.00000000,120.00000310
8801,CdI2,2.4173,4.33234403,4.33234403,51.86317500,90.00000000,90.00000000,120.00000050
8802,CdI2,2.4211,4.33262138,4.33262138,51.82098600,90.00000000,90.00000000,119.99999052
8803,TlI,2.4360999999999997,5.04740174,5.04740174,5.04740174,60.00000000,60.00000000,60.00000000
8804,CdI2,2.4293,4.33185124,4.33185124,52.20957300,90.00000000,90.00000000,119.99998839
8805,CdI2,2.4217,4.33419391,4.33419391,51.87175500,90.00000000,90.00000000,119.99999856
8806,RbGeI3,2.4471,5.95629100,5.95629100,5.95629100,90.00000000,90.00000000,90.00000000
8807,CdI2,2.4225,4.33070068,4.33070068,59.40096400,90.00000000,90.00000000,120.00001037
8808,CdI2,2.4175,4.33268141,4.33268141,51.86658300,90.00000000,90.00000000,119.99999103
8809,CdI2,2.4194,4.33356306,4.33356306,59.29938900,90.00000000,90.00000000,120.00001612
8810,CdI2,2.4222,4.33390180,4.33390180,59.31700200,90.00000000,90.00000000,119.99999697
8811,CdI2,2.4195,4.33266032,4.33266032,59.29958800,90.00000000,90.00000000,120.00000495
8812,CdI2,2.4388,4.33342377,4.33342377,78.17167600,90.00000000,90.00000000,119.99999644
8813,CdI2,2.4394,4.33298964,4.33298964,60.15454700,90.00000000,90.00000000,119.99999452
8814,CdI2,2.4311,4.33213255,4.33213255,74.71438300,90.00000000,90.00000000,120.00000840
8815,TlMo2Cl7O2,2.4263,7.23457400,9.59986200,9.84460300,90.00000000,90.00000000,90.00000000
8816,FeCoPO4F,2.4351,7.32744520,7.32744520,9.93776534,64.78813478,64.78813478,52.71488478
8817,B2S3,2.4329,10.80679300,4.54610800,19.27592097,87.90648784,90.00000000,90.00000000
8818,CsAuF4,2.4479,7.76245355,7.76245355,7.76245355,137.08770755,127.18763760,70.31650273