,pretty_formula,bandgap,cell_length_a,cell_lentgh_b,cell_lentgh_c,cell_angle_alpha,cell_angle_beta,cell_angle_gamma
8193,Ca3Fe2(GeO4)3,2.3844,10.80088004,10.80088004,10.80088004,109.47122063,109.47122063,109.47122063
8194,Ca2NCl,2.4103000000000003,6.96173100,6.96173100,6.96173055,30.58299104,30.58299104,30.58298324
8195,CsPbCl3,2.3954999999999997,5.73392400,5.73392400,5.73392400,90.00000000,90.00000000,90.00000000
8196,Ti(Bi3O5)4,2.3865000000000007,8.93697167,8.93697167,8.93697167,109.47122063,109.47122063,109.47122063
8197,KSn2Br5,2.4079,9.62016636,9.62016636,9.62016636,127.70749061,127.70749061,77.09936305
8198,Co(HO)2,2.3783000000000003,3.20948039,3.22533541,4.77850717,90.71539817,89.89952374,120.44917945
8199,HgHClO4,2.3903,4.77626900,7.38510100,11.69828700,90.00000000,90.00000000,90.00000000
8200,LiBeH3,2.3832,4.39489500,4.51740900,6.27660700,90.00000000,90.00000000,90.00000000
8201,K2NaAlH6,2.3908,5.74650690,5.74650690,5.74650690,60.00000000,60.00000000,60.00000000
8202,Li2CoP2O7,2.3952,13.40636100,5.08447300,9.36191658,59.68378415,90.00000000,90.00000000
8203,K2O2,2.396,4.91158791,4.91158791,6.56506000,90.00000000,90.00000000,91.95441067
8204,CsSnBr3,2.385,5.88600100,5.88600100,5.88600100,90.00000000,90.00000000,90.00000000
8205,TlPbI3,2.3962000000000003,8.07142860,8.07142860,12.00853400,90.00000000,90.00000000,146.16351163
8206,Na2PbO2,2.4078,6.05667100,7.02271900,17.17160900,90.00000000,90.00000000,90.00000000
8207,Sb4Br2O5,2.3810000000000002,5.24727700,6.73488700,13.81580118,83.91197939,90.00000000,90.00000000
8208,Ba(NO2)2,2.3918999999999997,6.89855100,7.83048700,8.46659300,90.00000000,90.00000000,90.00000000
8209,K4MnCl6,2.3953,7.78511458,7.78511458,7.78511458,109.47122063,109.47122063,109.47122063
8210,BaMo3O10,2.4137999999999997,7.69798900,7.32193400,15.40767644,73.28098658,90.00000000,90.00000000
8211,Zr2TeBr12,2.4105,16.61393300,7.48957600,19.69091035,82.69751475,90.00000000,90.00000000
8212,I2(OF2)3,2.3842999999999996,8.74605500,9.58473100,10.08464665,63.55968119,90.00000000,90.00000000
8213,CuW3Cl7,2.401,13.13928800,13.13928800,13.13928800,90.00000000,90.00000000,90.00000000
8214,Rb4SnS4,2.4082,13.67538600,13.67538600,13.67538600,90.00000000,90.00000000,90.00000000
8215,Sr3(BS3)2,2.383,6.13836563,6.13836563,15.60156721,79.84397213,79.84397213,65.79627858
8216,GaI3,2.3854,6.69352300,10.15095300,12.71164837,71.85806399,90.00000000,90.00000000
8217,GaPS4,2.3827999999999996,8.20691700,8.64432300,12.08389588,49.18468092,90.00000000,90.00000000
8218,B10H13I,2.3907,12.31926400,14.39028400,14.47897331,60.83675343,90.00000000,90.00000000
8219,LiFeP2O7,2.3937000000000004,5.30089998,5.30089998,9.07749993,81.51834535,81.51834535,103.73269481
8220,CsNO2,2.3904,6.07636709,6.07636709,8.09620300,90.00000000,90.00000000,119.99999009
8221,Tm2MgS4,2.3789,7.11790543,7.11790543,7.11790543,110.43438841,110.43438841,107.56159677
8222,NbSbO4,2.3945000000000003,5.07846500,5.69168100,11.99438500,90.00000000,90.00000000,90.00000000
8223,ScCuO2,2.3793,3.24434149,3.24434149,11.44939800,90.00000000,90.00000000,119.99998957
8224,Li3GaN2,2.3783,8.37915778,8.37915778,8.37915778,109.47122063,109.47122063,109.47122063
8225,KErS2,2.4051,7.71752072,7.71752072,7.71752010,30.18032735,30.18032735,30.18033129
8226,KLiTe,2.4106,4.86853400,4.86853400,7.76145200,90.00000000,90.00000000,90.00000000
8227,NaTaO3,2.3890000000000002,5.55708168,5.55708168,7.90282600,90.00000000,90.00000000,90.51470065
8228,AlInS3,2.3873,6.83364597,6.83364597,18.08916600,90.00000000,90.00000000,119.99999969
8229,MgCrO4,2.4004,6.84406287,6.84406287,6.84151131,79.91160082,79.91160082,85.33202602
8230,HS9N,2.3976,5.58199600,14.27271500,15.19126700,90.00000000,90.00000000,90.00000000
8231,Na4Sn3O8,2.3778000000000006,9.35391900,9.35391900,9.35391900,90.00000000,90.00000000,90.00000000
8232,Rb2TiFe(PO4)3,2.4053,10.05200900,10.05200900,10.05200900,90.00000000,90.00000000,90.00000000
8233,Te7(OF5)6,2.3841,9.10331900,9.31288945,9.35085831,115.43609168,100.22954045,99.90437359
8234,Sb(S8I)3,2.384,15.25233786,15.25233786,15.25233768,118.77501647,118.77501647,118.77501423
8235,PbI2,2.4125,15.18486970,15.18486970,15.18486971,17.63081755,17.63081755,17.63081328
8236,BaH2N2O5,2.3958,7.17570900,7.17570900,18.22568300,90.00000000,90.00000000,119.99999082
8237,NbPO5,2.3831,5.39285400,13.28328900,13.50891478,59.66203306,90.00000000,90.00000000
8238,CsAgCl2,2.3792,9.99797638,9.99797638,5.76587300,90.00000000,90.00000000,154.31471657
8239,FeH12Pt(ClO)6,2.3921,7.19848482,10.78860817,9.54371861,89.95884623,100.16014847,89.93157417
8240,RuO4,2.3971,5.43216677,5.43216677,8.96843857,66.06179768,66.06179768,51.01086641
8241,RbClO2,2.4078,4.65204096,4.65204096,8.01287700,90.00000000,90.00000000,91.67452289
8242,Ti(GaO2)4,2.4065,6.40533030,6.40533030,9.60691563,56.70556159,56.70556159,27.60966078
8243,Ba3Mo2(P2O9)2,2.3777999999999997,4.92679600,9.36587620,18.26557486,88.30757207,88.20969618,78.51834952
8244,CsNdNb2O7,2.3986,5.50021700,5.56824200,11.46714300,90.00000000,90.00000000,90.00000000
8245,BrN(OF2)2,2.3839,5.90705700,5.92798200,14.22465300,90.00000000,90.00000000,90.00000000
8246,OsC4(ClO2)2,2.3881,6.08941700,6.08941700,12.07405300,90.00000000,90.00000000,90.00000000
8247,CdP2Xe5F22,2.4130000000000003,8.77162400,14.82101500,17.70345500,90.00000000,90.00000000,90.00000000
8248,NaBi2Sb3O11,2.4062,9.64539700,9.64539700,9.64539700,90.00000000,90.00000000,90.00000000
8249,V2Te2O9,2.4032999999999998,14.83511058,14.79624417,5.04018316,80.64226014,79.77147710,19.58626276
8250,K2HgC2S2(BrN)2,2.3991,13.23250656,13.23250656,11.70173300,90.00000000,90.00000000,120.00000281
8251,Rb2NiF6,2.3849,6.07759834,6.07759834,6.07759834,60.00000000,60.00000000,60.00000000
8252,Ba3Fe2Br2O5,2.4088,8.85838412,8.85835447,8.85836626,109.33093403,109.57843499,109.50457660
8253,Cd5Mo2(P2O7)4,2.3917,6.78855269,6.78855269,24.90352590,84.73173447,84.73173447,96.68119006
8254,Li2Mo4O13,2.3935,8.40000600,8.73455832,11.73208186,95.88310245,109.13960775,95.83433877
8255,K4Ru(NO2)6,2.389,8.70904473,8.70904473,8.70904471,51.73121398,51.73121398,51.73121499
8256,V2ZnPbO7,2.4073,15.07180000,7.02697500,11.56438101,80.33353614,90.00000000,90.00000000
8257,Ge3Pb5O11,2.4115,10.41003186,10.41003186,10.86378800,90.00000000,90.00000000,119.99999909
8258,K3Nb3(BO6)2,2.3810000000000002,4.05016000,15.43126900,17.80539900,90.00000000,90.00000000,90.00000000
8259,SrLiBS3,2.3925999999999994,7.11388600,7.58931300,9.17207500,90.00000000,90.00000000,90.00000000
8260,H12Pd(N5O4)2,2.3961,7.06902000,7.56417807,7.56632088,97.03050794,117.65809934,109.71554018
8261,UH12C4N4O11,2.3849,17.31186000,7.94588200,11.70738212,74.82324046,90.00000000,90.00000000
8262,Hg3PClO4,2.3842,8.50610800,8.50610800,8.50610800,90.00000000,90.00000000,90.00000000
8263,FeH44C12(N5O8)2,2.4145999999999996,9.19601600,9.45373293,9.82800233,88.12345670,104.27564226,118.81463160
8264,Ba2ZnS3,2.4026000000000005,4.25876500,12.17068100,12.75156400,90.00000000,90.00000000,90.00000000
8265,NaNbO3,2.4077,5.56653800,5.64486300,15.93417900,90.00000000,90.00000000,90.00000000
8266,GePb3O5,2.3916,10.63445900,5.39641600,5.61798309,86.71946794,90.00000000,90.00000000
8267,Ba3Ho2(PS4)4,2.3813999999999997,10.41221300,12.74290700,19.43586900,90.00000000,90.00000000,90.00000000
8268,BiTeIO3,2.4116999999999997,7.17410800,8.14035600,9.58857994,74.01501672,90.00000000,90.00000000
8269,BaVClO3,2.3926000000000003,5.34938000,7.54383900,10.65338000,90.00000000,90.00000000,90.00000000
8270,KLiO,2.3844,5.46432472,5.46432472,6.49987100,90.00000000,90.00000000,107.45198728
8271,Na3V(SO)2,2.4009,5.99795100,11.74576800,17.89753000,90.00000000,90.00000000,90.00000000
8272,SrTa2Bi2O9,2.4004999999999996,13.05977023,13.05977023,5.59382400,90.00000000,90.00000000,155.16939102
8273,NbPCl8O,2.3872,8.62233600,9.27970000,17.12484900,90.00000000,90.00000000,90.00000000
8274,InAg(WO4)2,2.3882,5.94101800,5.16928200,10.41253131,89.00587065,90.00000000,90.00000000
8275,Ba3Er2(PS4)4,2.3786,10.39632400,12.72353600,19.42011800,90.00000000,90.00000000,90.00000000
8276,CsFe(SO4)2,2.3840999999999997,8.61590655,10.33920568,9.94831895,103.91902102,90.00046974,65.37328955
8277,Li2U(MoO5)2,2.4047,5.50857439,5.93508646,8.38578756,108.21182193,100.09513486,104.70585382
8278,InBiO3,2.388700000000001,5.67835500,6.09561000,8.20360800,90.00000000,90.00000000,90.00000000
8279,Sr2CuClO2,2.3808999999999996,4.03741169,4.03741169,27.80849200,90.00000000,90.00000000,119.99999493
8280,CuCClO,2.3877,3.66227300,5.04768400,8.38342100,90.00000000,90.00000000,90.00000000
8281,Na2CoP2O7,2.3905,7.80324300,10.43801000,15.63692900,90.00000000,90.00000000,90.00000000
8282,CdI2,2.4036,4.34690511,4.34690511,7.30020200,90.00000000,90.00000000,119.99998650
8283,CdI2,2.3808,4.33237045,4.33237045,22.16084400,90.00000000,90.00000000,120.00000690
8284,CdI2,2.4053999999999998,4.33217919,4.33217919,44.38878300,90.00000000,90.00000000,119.99998765
8285,CdI2,2.4145,4.33283100,4.33283100,59.28796700,90.00000000,90.00000000,120.00001520
8286,PbI2,2.4129,4.67829894,4.67829894,31.58383900,90.00000000,90.00000000,120.00001329
8287,Ba2Li3NbN4,2.4101000000000004,6.36165016,6.36165016,11.14004110,64.48057532,64.48057532,53.39223178
8288,CdI2,2.3865000000000003,14.98179418,14.98179418,14.98179395,16.63333126,16.63333126,16.63333193
8289,TlSn2Br5,2.3783000000000003,9.54454082,9.54454082,9.54454082,127.41212058,127.41212058,77.57932398
8290,CdI2,2.378,22.17028636,22.17028636,22.17028591,11.21394410,11.21394410,11.21394547
8291,TlBr,2.4061000000000003,6.71707429,6.71707429,5.06230700,90.00000000,90.00000000,141.09978447
8292,MgH2,2.3778,4.65032600,4.76907500,4.89320800,90.00000000,90.00000000,90.00000000
8293,CdI2,2.38,4.33444657,4.33444657,127.15438700,90.00000000,90.00000000,120.00000863
8294,CdI2,2.4072,4.33540400,4.33540400,130.45353700,90.00000000,90.00000000,120.00000000
8295,CdI2,2.4077,4.33502321,4.33502321,129.43161600,90.00000000,90.00000000,119.99998797
8296,CdI2,2.4124000000000003,4.33230819,4.33230819,29.60272100,90.00000000,90.00000000,120.00000284
8297,CdI2,2.4122000000000003,4.33484844,4.33484844,91.90394900,90.00000000,90.00000000,120.00000675
8298,CdI2,2.3906,4.33271813,4.33271813,67.42114600,90.00000000,90.00000000,120.00000191
8299,CdI2,2.379,4.33290046,4.33290046,67.04069400,90.00000000,90.00000000,120.00000698
8300,CdI2,2.4048000000000003,4.33080239,4.33080239,22.20993000,90.00000000,90.00000000,120.00000594
8301,CdI2,2.4105,4.33680672,4.33680672,99.95118800,90.00000000,90.00000000,120.00001100
8302,GaI2,2.3838,15.83948930,15.83948930,15.83948906,117.36302098,117.36302098,117.36301681
8303,Pr3CCl5,2.3942,8.32508924,8.32508924,16.00402965,83.77837889,83.77837889,63.85259858
8304,CdI2,2.3792,4.33286015,4.33286015,66.71659400,90.00000000,90.00000000,120.00000223
8305,CdI2,2.387,4.33754821,4.33754821,88.92714800,90.00000000,90.00000000,120.00000319
8306,CdI2,2.3941,4.33181403,4.33181403,74.82742300,90.00000000,90.00000000,120.00000042
8307,CdI2,2.3923,4.33369168,4.33369168,90.42980900,90.00000000,90.00000000,119.99999519
8308,CdI2,2.3857,4.33183598,4.33183598,74.39011900,90.00000000,90.00000000,119.99999972
8309,CdI2,2.3903,4.33445736,4.33445736,90.38394700,90.00000000,90.00000000,119.99999022
8310,Al2BiSe4,2.4043000000000005,8.01592600,8.01592600,12.61241900,90.00000000,90.00000000,90.00000000
8311,CdI2,2.3876,4.33562218,4.33562218,89.78258400,90.00000000,90.00000000,120.00000273
8312,CdI2,2.4135999999999997,4.33504826,4.33504826,91.87212000,90.00000000,90.00000000,120.00000404
8313,CdI2,2.3944,4.33779504,4.33779504,89.52674200,90.00000000,90.00000000,120.00001585
8314,Cs2Ge2S5,2.4126,11.46048501,11.46048501,9.67154260,79.24455986,79.24455986,90.40521088
8315,CsUP3O11,2.3902,11.13989900,7.12839800,13.66072565,73.85116858,90.00000000,90.00000000
8316,CdI2,2.3836999999999997,29.55172763,29.55172763,29.55172719,8.43644090,8.43644090,8.43644262
8317,NaMoO2,2.3929,5.73110633,5.73110633,5.73110645,33.27156866,33.27156866,33.27156243
8318,PbI2,2.3943000000000003,4.66878935,4.66878935,75.08176200,90.00000000,90.00000000,119.99999086
8319,CdI2,2.3918999999999997,4.33362719,4.33362719,136.42000100,90.00000000,90.00000000,119.99998759
8320,H10C5SeS2BrN3,2.4142,9.12585500,11.99056200,22.37742200,90.00000000,90.00000000,90.00000000
8321,Sm2SiTeO4,2.3988999999999994,6.28385800,7.17660400,11.21761900,90.00000000,90.00000000,90.00000000
8322,KU2P3O14,2.3917,10.44577200,10.79138900,11.30047800,90.00000000,90.00000000,90.00000000
8323,MnC4NO5,2.3945,6.76407734,6.76407734,9.55501249,74.42786920,74.42786920,59.62674196
8324,ReC5BrO5,2.3922,6.18953200,11.78002800,12.17488200,90.00000000,90.00000000,90.00000000
8325,SnHg2(SBr)2,2.4103,9.03509400,10.46548800,14.49226345,69.44072217,90.00000000,90.00000000
8326,CdI2,2.3811,4.34589571,4.34589571,66.08729000,90.00000000,90.00000000,119.99999554
8327,CdI2,2.3782,4.34408974,4.34408974,73.64844600,90.00000000,90.00000000,119.99999609
8328,VBi(PbO3)2,2.4006,5.80228200,10.09110900,12.39029100,90.00000000,90.00000000,90.00000000
8329,Li4H6Ru,2.3929,5.75328423,5.75328423,5.75328402,90.07170535,90.07170535,90.07170095
8330,H6CN4O3,2.4115,7.06013007,7.06013007,4.04548878,83.31131986,83.31131986,78.84743634
8331,Na2Co(NO3)4,2.3933,7.80932500,10.85155700,15.68142037,49.20464869,90.00000000,90.00000000
8332,CdI2,2.384,4.34672948,4.34672948,51.39335600,90.00000000,90.00000000,119.99999205
8333,Cr2(MoO4)3,2.3921,9.40277600,9.49202800,13.07108300,90.00000000,90.00000000,90.00000000
8334,Fe(PO3)2,2.3833,7.40862620,7.40862620,10.02562043,67.19138552,67.19138552,70.11472227
8335,Os3C9Se2O9,2.3902,6.90574100,9.75660155,13.70200633,94.23801224,95.72287446,110.42375688
8336,InRe2C10BrO10,2.3813,13.25672700,10.75726600,25.76883046,82.57418315,90.00000000,90.00000000
8337,InRe2C10ClO10,2.4128,13.03937100,10.73510300,25.64021262,82.91357442,90.00000000,90.00000000
8338,MoPb5O8,2.4042999999999997,12.11645000,12.01436200,19.85631319,53.28840735,90.00000000,90.00000000
8339,Tl2FeC5N6O,2.3960999999999997,9.27097477,9.27097477,6.85984320,73.15396208,73.15396208,86.77616942
8340,CsCd(NO2)3,2.4075,5.58508289,5.58508289,5.58508276,90.31035452,90.31035452,90.31034134
8341,CdI2,2.3857,4.34631234,4.34631234,66.12582600,90.00000000,90.00000000,120.00000521
8342,Dy2Zr8O19,2.3928,3.64358900,3.64358900,25.73805800,90.00000000,90.00000000,90.00000000
8343,Tb14Ti10O41,2.3958000000000004,7.29426357,7.29426357,17.69676519,89.37181493,89.37181493,60.20950617
8344,Sr6Ta2O11,2.4048999999999996,8.56732100,8.56732100,8.54643300,90.00000000,90.00000000,90.00000000
8345,Ba3La3Ti4NbO18,2.4054,14.17746172,14.17746172,14.17746113,23.12808594,23.12808594,23.12808292
8346,CdI2,2.3812,4.34519230,4.34519230,80.91517900,90.00000000,90.00000000,120.00000453
8347,CdI2,2.3871,4.35149010,4.35149010,29.30578000,90.00000000,90.00000000,120.00000152
8348,CdI2,2.3783,4.34230214,4.34230214,103.17152200,90.00000000,90.00000000,120.00000207
8349,CdI2,2.3813999999999997,4.34311842,4.34311842,110.40329100,90.00000000,90.00000000,120.00000634
8350,CdI2,2.3832,4.34280349,4.34280349,110.42134700,90.00000000,90.00000000,119.99999225
8351,CdI2,2.3851,4.34195446,4.34195446,110.42731200,90.00000000,90.00000000,120.00000705
8352,CdI2,2.3827999999999996,4.34452523,4.34452523,110.58151500,90.00000000,90.00000000,119.99998835
8353,Cd3(PO4)2,2.3911000000000002,10.52495300,9.34134100,22.49235650,75.37334818,90.00000000,90.00000000
8354,Mn2InC10IO10,2.3988,9.15926700,10.05481196,10.55866419,117.06946396,92.42683595,92.99118858
8355,K2NaNb(OF2)2,2.3831,6.07810100,6.08342755,8.63949561,89.81452900,89.94245549,89.97564418
8356,Gd2Ti2O7,2.4088999999999996,7.27369526,7.27369557,29.05051891,59.50497918,59.50497760,59.63461755
8357,Na3TlH24(ClO2)6,2.3851999999999998,8.77474400,8.77809311,8.85090454,71.40313696,73.61444206,73.15845955
8358,MgTiNb2(PbO3)4,2.3790000000000004,8.05959700,8.30192365,9.98018349,113.70804290,113.74510869,89.85212816
8359,Na3Ca7Ta3Ti7O30,2.3925,5.45653800,5.54607348,38.66733393,90.05648916,90.01897396,90.08054984
8360,CaLaMnNbO6,2.3807,6.31559200,6.03295900,9.58347557,50.99858133,90.00000000,90.00000000
8361,LiMgCr3(SO4)6,2.4047,8.35178900,8.86981377,12.18108042,84.78941031,89.86191894,89.82206901
8362,Li3Ti3Fe(PO4)6,2.4059,8.69550553,8.69115561,17.45040713,59.80590608,59.88872888,59.94844611
8363,Ba9La3Mg5Nb7O36,2.3787,5.81651700,8.23106500,17.44612300,90.00000000,90.00000000,90.00000000
8364,Li10Si(PS6)2,2.3830999999999998,8.77090200,8.77090200,12.61897400,90.00000000,90.00000000,90.00000000
8365,H4S4N6O,2.411,9.61511318,9.61511318,7.09981812,75.06927197,75.06927197,38.50693212
8366,Sr(H2N)2,2.4040000000000004,6.74512582,6.74512582,6.74512582,131.75671326,131.75671326,70.61354430
8367,LiFe4P7O24,2.4096,10.24311900,10.31467679,10.74364057,108.80084921,111.21668992,105.20849835
8368,AgH6C4(NO)2,2.3896,6.96011500,6.49991700,12.64073644,87.15790007,90.00000000,90.00000000
8369,Ba5SrNd2Fe4O15,2.4045,11.89981940,11.89981940,14.24861108,89.77673073,89.77673073,59.88792911
8370,Na2Co5Mo4(ClO4)4,2.3951000000000002,7.04305807,7.04397309,10.83103367,74.60987679,74.77065431,78.86633475
8371,Fe2P4Pb3O16,2.4057999999999997,9.19385200,9.13491000,9.46796011,63.02899008,90.00000000,90.00000000
8372,Fe2(MoO4)3,2.4052,9.52468800,16.18367200,16.24305093,70.92179498,90.00000000,90.00000000
8373,K2TiCr(PO4)3,2.3967,9.94057400,9.94316433,19.88672291,90.01326749,90.03339203,90.05931742
8374,Mg2PHO5,2.4122,11.69062368,11.69062368,4.87253300,90.00000000,90.00000000,119.99999819
8375,H4C(N2O)2,2.3846000000000003,4.40392100,9.56861724,10.97044832,84.01603162,80.44269002,80.34815935
8376,H26Os2N12Cl4O9,2.4037,7.15189379,7.15189379,26.00830173,82.98233343,82.98233343,57.17780410
8377,RbLaSe2,2.3849,8.40321855,8.40321855,8.40321880,30.92573163,30.92573163,30.92573385
8378,Rb9Na2Al11Si13O48,2.4145,12.19473700,12.25967722,12.57806692,90.14989750,91.29581815,90.94578002
8379,CdRe2H16C4S4(NO)8,2.3909,13.79018200,7.07435400,11.67441988,73.21396722,90.00000000,90.00000000
8380,PH5N2O3,2.3858,8.28288200,8.31290242,8.61766471,107.62515845,118.65647727,85.37980082
8381,ZrFeP3PbO12,2.3786,9.35135724,9.35135724,9.35135669,56.01506746,56.01506746,56.01506844
8382,SrFe3P4HO16,2.4058,7.39179300,8.60538300,19.80375540,85.13171982,90.00000000,90.00000000
8383,Gd3NbO7,2.3862,6.46712800,6.55834691,7.70015942,106.80412237,89.69330132,97.39202552
8384,Sb3O4F,2.3861,9.31623088,9.31623088,5.66185830,78.29979542,78.29979542,34.04998201
8385,Cs2Sr2O3,2.4125,7.51548600,7.22712000,7.45275156,63.80153739,90.00000000,90.00000000
8386,Li2Cr2O7,2.3994,5.43284500,7.62163858,7.82360566,102.04977125,102.48971457,90.58154236
8387,LiVF4,2.4038,4.69570600,5.71591300,10.31242000,90.00000000,90.00000000,90.00000000
8388,YIO,2.3983,11.06656699,11.06656699,11.06656700,20.54239220,20.54239220,20.54239557
8389,Li3FeOF4,2.388,5.29856269,7.49639278,5.39980545,106.91706056,94.55849247,110.67773419
8390,LiTaO3,2.3951000000000002,5.44450700,5.44450700,3.94262300,90.00000000,90.00000000,90.00000000
8391,Li2Cr2O7,2.3810000000000002,5.72791955,5.72791955,9.98118132,75.69702451,75.69702451,96.16874075
8392,Hf2N2O,2.3926,5.43663400,5.47590770,10.19378897,75.50354588,75.01566823,60.60289006
8393,Na2SnO3,2.3901000000000003,10.73412786,10.22829568,5.71588272,79.12126036,69.34996875,31.52877089
8394,Li5CuSO2,2.4002999999999997,3.86334500,3.86334500,7.75026900,90.00000000,90.00000000,90.00000000
8395,La2Ce2O7,2.4075000000000006,7.93897068,7.93897068,7.93897068,60.00000000,60.00000000,60.00000000
8396,Li4CoO3,2.4111000000000002,5.61416066,5.61416066,6.95633121,70.48403099,70.48403099,53.98686028
8397,Li3V5O14,2.3956,8.77079227,8.77079227,4.89228100,90.00000000,90.00000000,120.00000207
8398,LiVF4,2.4101999999999997,5.43671400,6.40092600,9.07304400,90.00000000,90.00000000,90.00000000
8399,Hf2N2O,2.4005,5.49390770,5.49390770,10.31758963,73.91979955,73.91979955,59.29350447
8400,Lu2TeO6,2.4095000000000004,4.91565400,4.91565400,9.88690500,90.00000000,90.00000000,90.00000000
8401,Er2Zr2O7,2.3925000000000005,7.45414150,7.45414150,7.45414150,60.00000000,60.00000000,60.00000000