,pretty_formula,bandgap,cell_length_a,cell_lentgh_b,cell_lentgh_c,cell_angle_alpha,cell_angle_beta,cell_angle_gamma
8402,Li2CoGeO4,2.4031000000000002,5.52413600,8.22307715,8.21398255,76.81904180,89.99994296,89.99998967
8403,Li4Mn3Cr(PO4)4,2.3957000000000006,6.22609100,4.79138600,10.47440075,89.02815044,90.00000000,90.00000000
8404,Li6CrFeP2(CO7)2,2.4072,8.65546644,5.02730327,6.45524247,89.98122872,90.03706086,83.82556876
8405,LiCrSnO4,2.3800999999999997,6.04920679,6.29556600,8.66383788,89.99993984,90.00024013,89.99993021
8406,LiCrPO4,2.378,10.75752100,5.88572300,10.05097930,88.27132956,90.00000000,90.00000000
8407,LiFeSi3O8,2.3893000000000004,8.02381806,7.10999044,7.11511838,81.61615785,109.02920059,61.75694641
8408,Li4Mn3V(PO4)4,2.4125,6.17036800,4.78989500,10.55919726,89.97199022,90.00000000,90.00000000
8409,Li3Fe(PO4)2,2.4045,8.82907888,8.83171453,10.06685836,74.55839674,111.36418580,73.69530734
8410,Li3V(Si2O5)3,2.4128,11.02754860,11.02754860,10.19935600,90.00000000,90.00000000,99.93961704
8411,Li2CoP2O7,2.3933,7.77322149,7.77322149,7.90444514,64.34379940,64.34379940,42.25866126
8412,LiCoPO4,2.4138,8.47811032,8.47811032,7.48655800,90.00000000,90.00000000,120.00000246
8413,Li3Cr4P2O8F9,2.4033,14.37121000,6.94415800,7.16433843,76.45030662,90.00000000,90.00000000
8414,LiFe(PO3)4,2.3903,8.85671500,7.44101700,15.45913122,66.42729071,90.00000000,90.00000000
8415,LiFeSiO4,2.3802000000000003,4.98398000,7.84712400,9.15944100,90.00000000,90.00000000,90.00000000
8416,Li6MnO3F2,2.3977,5.63561067,5.63561067,9.74422871,86.09744914,86.09744914,53.84109315
8417,Sn(SO4)2,2.3798,9.13502600,9.33391000,13.80475100,90.00000000,90.00000000,90.00000000
8418,Li7Co(OF)3,2.408,5.69947669,8.46990095,5.76031214,80.02460666,95.22241533,88.45739146
8419,Li2Sn(BO3)2,2.394,6.50745100,8.15451900,9.94281800,64.18143446,90.00000000,90.00000000
8420,Na2LiVPO6,2.3914,12.59234400,5.97118600,8.11571643,66.60972039,90.00000000,90.00000000
8421,Na4Ti7O16,2.4039,6.08497800,6.17435500,9.02608202,86.46548626,90.00000000,90.00000000
8422,Li3Co5OF11,2.4028,5.23416560,5.62296594,9.25053384,85.83162292,73.91072498,118.28712495
8423,Na3Fe2(PO4)3,2.3859,9.08727991,9.08727991,9.08728006,58.24421691,58.24421691,58.24421322
8424,Li2Mn3OF6,2.4050000000000002,6.17951281,8.29503871,6.70494658,67.90589874,97.74358707,108.76209932
8425,LiV(CO3)2,2.4053999999999998,6.53324810,9.59449332,7.96608900,90.00057242,90.00186095,106.90614649
8426,Li2MnF5,2.3849,5.41666400,13.99243700,14.39201104,87.25997512,90.00000000,90.00000000
8427,Ba2Sb2O5,2.3822,6.46081800,8.20429300,14.73678900,90.00000000,90.00000000,90.00000000
8428,Li6CrFe3(PO4)6,2.3823,8.57212300,8.62095068,8.62247932,61.36711131,61.38789476,61.40404141
8429,Li2FeP2HO8,2.3863,7.94168691,8.11439900,9.73845265,89.99953745,112.12863461,90.00058629
8430,Ba3LiTi5(SbO7)3,2.3985,9.17870709,9.17870709,11.79944100,90.00000000,90.00000000,120.13423181
8431,UH12(NO7)2,2.3813,7.72672833,7.72672833,11.25616200,90.00000000,90.00000000,116.08840066
8432,Li4TiS4,2.3811,6.19996800,7.84546300,14.31128300,90.00000000,90.00000000,90.00000000
8433,Gd3As5O12,2.3862,9.30466700,9.30466700,9.30466700,109.47122063,109.47122063,109.47122063
8434,Sn2P2O7,2.4065000000000003,11.92741779,11.92741779,9.65681602,76.95164849,76.95164849,48.48237876
8435,Ba3(YI6)2,2.3958,13.31841800,13.31841800,8.01321200,90.00000000,90.00000000,90.00000000
8436,Li7Bi(BO4)2,2.3887,8.04078188,8.04078188,7.53857815,89.10081510,89.10081510,46.91590537
8437,Na6Sn2C4SO16,2.3949999999999996,10.32383820,10.32383820,10.32383820,60.00000000,60.00000000,60.00000000
8438,Na2FePCO7,2.3889,8.34284800,8.35632033,10.35270023,108.05067909,108.08162546,102.50861921
8439,BaGa4O7,2.3813,8.39577450,8.39577450,5.85965503,77.98476067,77.98476067,68.96398208
8440,Li6Ti2O7,2.3823,5.76870293,5.76870293,5.13153491,72.15520432,72.15520432,60.93870701
8441,Mn2P4O13,2.4105999999999996,9.00230300,8.38444400,13.39916293,72.12860566,90.00000000,90.00000000
8442,RbLi2Fe2(BO3)3,2.3861,5.08282100,6.44630400,13.05877996,88.60904730,90.00000000,90.00000000
8443,Li2Cr2O7,2.4046000000000003,6.07895400,7.63595346,12.97772033,89.74495540,79.13282283,89.33944414
8444,Li2FeBO4,2.395,5.20657400,6.44545800,10.71563170,85.22476224,90.00000000,90.00000000
8445,Na3MnAsCO7,2.3845,8.79009073,8.79053558,10.61981011,107.29096480,107.27644458,106.09262574
8446,LiFePO4F,2.406,6.32243500,10.70229200,12.89289000,90.00000000,90.00000000,90.00000000
8447,Cr(PO3)2,2.3967,5.68438059,5.68438059,16.51113385,87.39548521,87.39548521,89.88393917
8448,Na2CrCSO7,2.3857999999999997,5.21142021,8.94088612,7.23747406,90.00968827,89.98861043,87.78297203
8449,MgV3O7,2.3872,5.33293400,10.23090600,10.23426400,90.00000000,90.00000000,90.00000000
8450,Li3VP2H2O9,2.4021,8.08611386,8.08611386,6.87361564,85.99183481,85.99183481,53.04273794
8451,Fe3Ni2Sb(PO4)6,2.3812000000000006,8.50535811,8.50535811,8.50535763,61.00848785,61.00848785,61.00848251
8452,Na2FePCO7,2.4044999999999996,6.54783900,10.35370943,10.39842459,60.64408856,89.47581116,89.27039871
8453,LiCr3P4O15,2.3783,10.49911000,6.44298600,17.28306645,89.74628159,90.00000000,90.00000000
8454,Bi3PO7,2.3797,9.43572657,9.43572657,12.28981445,77.21854505,77.21854505,92.48932576
8455,LiNiBO3,2.3794999999999997,3.12522900,14.08339178,14.08597910,60.07107447,89.49982426,89.30175687
8456,V2P2O7,2.3948,6.52810200,6.52810200,23.62124200,90.00000000,90.00000000,90.00000000
8457,HfSnO3,2.3784999999999994,7.45647790,7.45647790,7.45647792,42.87209825,42.87209825,42.87209609
8458,Li2Ti2MnCr2(PO4)6,2.4058,8.60104500,8.63615160,8.63886753,60.07624150,60.18768804,60.24098215
8459,Li5Fe3Ni2(PO4)6,2.3929,8.40658400,8.49910672,8.51548389,61.96077838,62.34155262,62.31270819
8460,Ge2N2O,2.3947000000000003,5.86309147,5.86309147,14.37925300,90.00000000,90.00000000,119.99999397
8461,Li2CrP4(H2O3)6,2.4080000000000004,11.58597300,8.05978900,8.93652334,65.22188788,90.00000000,90.00000000
8462,Sr5W3O14,2.4118000000000004,7.68831975,7.68831975,11.07539256,89.92166104,89.92166104,89.58279570
8463,Li5FeO4,2.3869000000000002,5.62089400,6.82796600,11.03082205,89.48215759,77.51323576,89.63572112
8464,Li5Fe7O3F13,2.4013999999999998,6.20394600,6.21579028,10.70332799,90.08282925,106.53988683,119.92956172
8465,Na2SnO2,2.4072,5.26591700,6.69714400,9.76057700,90.00000000,90.00000000,90.00000000
8466,Li2V3P4(HO4)4,2.3829999999999996,8.25067500,8.86804700,9.15540609,81.41423302,90.00000000,90.00000000
8467,Li5Fe5Si7O24,2.3908,7.86660400,7.90733770,9.36778188,90.37916013,90.94260695,90.98888260
8468,LiTa3O8,2.4137999999999997,7.78152900,8.99892700,16.98349300,90.00000000,90.00000000,90.00000000
8469,H6C2SBr2,2.4008,7.55247400,7.62442100,11.61265265,86.61146835,90.00000000,90.00000000
8470,Li2VH2OF5,2.4048,5.78609000,5.81346351,7.84977657,85.88239962,85.30032213,67.84117473
8471,Li4VF6,2.4003,3.25838900,7.59751900,14.15209200,90.00000000,90.00000000,90.00000000
8472,Cs2SnO3,2.3941999999999997,6.93899840,6.93899840,5.92843100,90.00000000,90.00000000,110.78549096
8473,MnOF,2.4109,3.79168900,4.35139449,5.52984070,110.99843094,109.36715688,90.92372067
8474,NaTmS2,2.3990000000000005,7.04973595,7.04973595,7.04973671,32.38035610,32.38035610,32.38035472
8475,RbErS2,2.3837,8.02359234,8.02359234,8.02359266,29.20923046,29.20923046,29.20922746
8476,RbTmS2,2.4001,8.01420430,8.01420430,8.01420444,29.10209955,29.10209955,29.10210232
8477,SmBS3,2.3885999999999994,6.04858400,7.44542000,8.87977800,90.00000000,90.00000000,90.00000000
8478,Re2S2O13,2.3901000000000003,6.05887100,8.46039500,9.78972700,90.00000000,90.00000000,90.00000000
8479,LaWN3,2.3776,7.48263425,7.48263425,6.41669344,76.19388872,76.19388872,85.74776169
8480,K3SbS4,2.4089,6.81645997,6.81645997,6.81645997,109.47122063,109.47122063,109.47122063
8481,AgAsO2,2.4071,5.27788010,5.27788010,6.91504916,70.98095751,70.98095751,51.64455619
8482,TlGeCl3,2.4097999999999997,5.32810371,5.32810371,5.32192970,89.22621218,89.22621218,89.16190864
8483,RbNaH2,2.4089,3.97527500,3.97527500,5.61041100,90.00000000,90.00000000,90.00000000
8484,TiP2O7,2.4065,8.69302700,6.90017600,9.62651560,74.11222029,90.00000000,90.00000000
8485,ZnBi3P3O13,2.3851999999999998,7.14071000,8.47604900,11.00259988,78.74978631,90.00000000,90.00000000
8486,BaVZnF7,2.3929,10.10558000,5.67138000,9.70025430,87.17250215,90.00000000,90.00000000
8487,BaCaVF7,2.3931,10.68065400,5.77525900,10.01309151,88.05236444,90.00000000,90.00000000
8488,CaCr2F10,2.3804999999999996,5.56457097,5.56457097,7.58232198,69.75364200,69.75364200,71.65786215
8489,ZnFeF5,2.3955,5.34943995,5.34943995,7.63555501,68.77319665,68.77319665,71.91164322
8490,YBiO3,2.4048000000000003,3.84543664,3.84543664,13.15241400,90.00000000,90.00000000,120.00001096
8491,WO2,2.3837,7.70852812,7.70852812,7.70852812,92.62955398,92.62955398,155.26372954
8492,MgCr(PO3)4,2.3847,7.45035178,7.45035178,10.12250723,66.18242641,66.18242641,68.50722553
8493,Nb2WO8,2.3873,10.58364383,10.58364383,5.16482054,89.02866521,89.02866521,34.22634905
8494,Ti(WO4)2,2.3974,5.82508100,5.04710200,10.52475235,62.47257364,90.00000000,90.00000000
8495,Te(WO4)2,2.4120999999999997,5.18635300,6.02904159,6.26991755,112.95078233,91.35005683,104.15927850
8496,MgCr2O7,2.3952,6.58803700,6.40014700,7.71713555,70.85700769,90.00000000,90.00000000
8497,Ti2Zn(PO5)2,2.4001,10.14451262,9.17580710,6.66472280,77.86899388,62.16690090,39.96410522
8498,MgTiCr(PO4)3,2.3987000000000003,8.53409906,8.53409906,8.53409879,60.48602556,60.48602556,60.48602600
8499,SbO2,2.4046,5.94257800,6.53528100,12.29461900,90.00000000,90.00000000,90.00000000
8500,BaO,2.4251000000000005,3.84935146,3.84935146,6.69504200,90.00000000,90.00000000,119.99999077
8501,Sn4SF6,2.4505000000000003,7.63812236,7.63812236,8.89549900,90.00000000,90.00000000,110.73439133
8502,LiCa3Si2N5,2.4385000000000003,10.58130456,10.58130456,10.42045936,89.74132836,89.74132836,151.65282613
8503,Sr3(BN2)2,2.4274,6.09940436,6.09940436,7.68142124,88.83885088,88.83885088,75.03026456
8504,NaMg30SbO32,2.4158999999999997,8.59376500,8.59376500,8.61736400,90.00000000,90.00000000,90.00000000
8505,NaMg30BO31,2.4481,8.47624400,8.55981200,8.63620300,90.00000000,90.00000000,90.00000000
8506,NaLiMg30O31,2.4409,8.55543900,8.55543900,8.52506900,90.00000000,90.00000000,90.00000000
8507,KLiMg30O31,2.4318,8.55524700,8.57500300,8.64544500,90.00000000,90.00000000,90.00000000
8508,Na4ReN3,2.4466,6.28895427,6.28895427,8.93019510,68.27536834,68.27536834,57.99332246
8509,SrC2,2.4194,4.17901144,4.17901144,7.89897176,74.51461479,74.51461479,64.01643718
8510,Sr2BBrN2,2.4459,9.21272275,9.21272275,9.21272332,26.02792456,26.02792456,26.02792301
8511,NdAlH6,2.445,4.25340565,4.25340565,4.25340625,98.46449346,98.46449346,98.46450427
8512,Cr(ClO)2,2.421,5.41308500,6.98378500,7.73745751,73.96563468,90.00000000,90.00000000
8513,Bi2O3,2.4424,5.83398686,5.83398686,5.83398686,88.66446509,88.66446509,88.66446926
8514,Ta2Ge2O7,2.4479,13.66819192,13.66819192,5.79174500,90.00000000,90.00000000,163.60802685
8515,Sm4Th3O12,2.4196999999999997,3.90374787,3.90374787,23.12412701,94.84201483,90.00000000,120.00000000
8516,Sb3O4F,2.4496,9.33297899,9.33297899,5.67525749,78.07856998,78.07856998,33.85562620
8517,Sn(PO3)3,2.4307,6.80324698,6.80324698,10.57202000,90.00000000,90.00000000,120.00000957
8518,MgCr2O4,2.4192,5.05272773,5.05272773,9.82916900,90.00000000,90.00000000,146.33354243
8519,V2O5,2.4322,6.28990000,6.59723153,7.36381541,77.36592428,80.01636303,75.91354467
8520,SnBr2,2.4179000000000004,12.62683535,12.62683535,4.38365500,90.00000000,90.00000000,119.99999662
8521,K2RbIrF6,2.4212000000000002,6.56407225,6.56407225,6.56407225,60.00000000,60.00000000,60.00000000
8522,Cs2ScTlI6,2.4279,8.88918784,8.88918784,8.88918784,60.00000000,60.00000000,60.00000000
8523,Cs2InAsF6,2.4404,6.72184616,6.72184616,6.72184616,60.00000000,60.00000000,60.00000000
8524,Rb2GaAgF6,2.4256,6.21459321,6.21459321,6.21459321,60.00000000,60.00000000,60.00000000
8525,Rb2ScInBr6,2.4482,8.22061979,8.22061979,8.22061979,60.00000000,60.00000000,60.00000000
8526,Rb2ScTlI6,2.4154,8.84749399,8.84749399,8.84749399,60.00000000,60.00000000,60.00000000
8527,KRb2TlCl6,2.4299999999999997,7.92143867,7.92143867,7.92143867,60.00000000,60.00000000,60.00000000
8528,Si3(TeO6)2,2.438,10.27659692,10.27659692,10.27659692,109.47122063,109.47122063,109.47122063
8529,Li6Zn3(PS4)4,2.4502000000000006,9.33610400,11.58860170,23.14102862,90.01321625,90.00030454,90.05682312
8530,K2Zn3S4,2.4299,6.21658500,10.04047900,13.76092000,90.00000000,90.00000000,90.00000000
8531,Li10Zn(PS4)4,2.4480000000000004,7.91054300,12.35572178,12.99232646,89.84227232,89.98873693,89.83735512
8532,K2NaNb(OF2)2,2.4244,6.08954300,6.08954300,8.65778200,90.00000000,90.00000000,90.00000000
8533,Sm2Zr8O19,2.4233,3.66331200,3.66331200,25.94073600,90.00000000,90.00000000,90.00000000
8534,LiFeSnO4,2.4200000000000004,6.12521400,6.12521400,8.62583000,90.00000000,90.00000000,90.00000000
8535,Li4Cr3FeO8,2.4434000000000005,5.16499770,5.90835248,5.93544135,59.84802749,90.00019825,73.31097886
8536,Li3Fe5(PO4)6,2.4326,6.37265796,15.86144426,10.92357233,89.76097769,91.18992767,101.58872447
8537,Li2Cr3WO8,2.4218,6.01896602,10.56774284,6.01912769,89.57988810,119.86237366,73.31815624
8538,Cs3ScO3,2.4457,13.39167800,7.46516400,8.43497746,64.22233410,90.00000000,90.00000000
8539,Ba3(ClO)2,2.4439,8.13508400,7.59243100,7.62629505,63.97415737,90.00000000,90.00000000
8540,Zr(NF3)2,2.4399,6.58774100,12.90906600,17.82582000,90.00000000,90.00000000,90.00000000
8541,Sr(ClO)2,2.4195,5.86871110,5.86871110,7.20535410,80.09008529,80.09008529,61.43107002
8542,Sn3(HO2)2,2.4397999999999995,8.15475066,8.15475066,9.21286729,89.88024957,89.88024957,90.06717968
8543,KHgBr3O,2.4412,8.25398347,8.25398347,11.34049900,90.00000000,90.00000000,147.92854831
8544,K3PS4O,2.4225,7.12970400,11.80875300,12.03177500,90.00000000,90.00000000,90.00000000
8545,FePH5CO8,2.4347000000000003,9.86384100,7.76797300,10.81247001,89.29737124,90.00000000,90.00000000
8546,GeC,2.4185,3.24325456,3.24325456,5.33567700,90.00000000,90.00000000,120.00001140
8547,YSeF,2.433,4.12511100,5.63954800,11.60169600,90.00000000,90.00000000,90.00000000
8548,Sr2ZnS3,2.4258999999999995,4.09636600,8.53238500,16.52202700,90.00000000,90.00000000,90.00000000
8549,Ca(BeN)2,2.4433,5.23375155,5.23375155,5.23375155,115.86207518,115.86207518,97.33020373
8550,CdC2(NO)4,2.4484,6.85288000,8.10158700,11.06056200,90.00000000,90.00000000,90.00000000
8551,Rb2Mo(SO)2,2.4282999999999997,8.72864600,6.90546100,14.16162340,64.73502646,90.00000000,90.00000000
8552,Tm2S3,2.4347000000000003,6.81010258,6.81010258,18.55582200,90.00000000,90.00000000,120.00000560
8553,Na3SbS3,2.4175000000000004,8.71965500,8.71965500,8.71965500,90.00000000,90.00000000,90.00000000
8554,Tl2CrO4,2.4313000000000002,7.15464273,7.15464273,15.01384477,68.76875399,68.76875399,48.88732500
8555,Lu2S3,2.4362,6.74090614,6.74090614,18.44071200,90.00000000,90.00000000,120.00000136
8556,Ca2SiSe4,2.4178999999999995,6.59682900,8.58324700,14.44940500,90.00000000,90.00000000,90.00000000
8557,Sr(CO2)2,2.4406999999999996,5.96029600,8.53296900,9.52515900,90.00000000,90.00000000,90.00000000
8558,NdTlP2S7,2.4414000000000002,12.52643500,9.09791900,9.89173408,89.51248035,90.00000000,90.00000000
8559,PrTlP2S7,2.4497000000000004,12.52466700,9.13697500,9.89608838,89.55136004,90.00000000,90.00000000
8560,BaGeS3,2.4494000000000002,5.83511500,13.55109500,15.62669048,64.51074279,90.00000000,90.00000000
8561,P3Pb5IO12,2.4246,10.38867075,10.38867075,7.47762800,90.00000000,90.00000000,120.00000479
8562,KZnP(CO3)2,2.4259,5.21794800,10.70595600,12.33186500,90.00000000,90.00000000,90.00000000
8563,K3SmGa3B12S12I,2.4325,12.99926189,12.99926189,9.37809700,90.00000000,90.00000000,119.99999946
8564,NbBi2O5F,2.4161,5.46711800,5.47477600,16.98143800,90.00000000,90.00000000,90.00000000
8565,NaUP3O11,2.4436,13.68943800,7.13807500,9.95839363,74.59862352,90.00000000,90.00000000
8566,Na5FeP2(O4F)2,2.4251,11.78699305,13.91590112,22.07374491,90.00000000,90.00000000,90.00000000
8567,NaV5H18N2O19,2.4492,8.58823700,10.54526819,11.51974270,111.30603809,87.49942309,113.51244323
8568,Cs3CaFe(P2O7)2,2.4361,9.45464700,11.42138700,15.32278500,90.00000000,90.00000000,90.00000000
8569,HC2N3,2.4343,4.29669500,12.77455100,16.99052078,89.91710068,90.00000000,90.00000000
8570,CsMo2P3O13,2.4476,19.89425300,6.50182500,10.04529588,73.02689900,90.00000000,90.00000000
8571,Na3V5(H12O13)2,2.4401,10.70228800,11.49078506,11.92206641,109.02492486,103.78123663,111.75981989
8572,H4PbI3N,2.4433,4.82979500,10.55387700,17.42170600,90.00000000,90.00000000,90.00000000
8573,TeAsHXeNF11,2.4156,5.70663300,7.44187024,12.86576907,87.73073166,84.67299305,86.21244414
8574,Ba2H8PtO8,2.4505,8.70697800,8.92404800,10.46890200,90.00000000,90.00000000,90.00000000
8575,Na3V5H26O27,2.4509,9.71333300,11.82810377,12.02832707,92.19744875,113.72683891,100.04929141
8576,KTbGeS4,2.4502,6.73267800,6.55904200,8.78293291,72.70971965,90.00000000,90.00000000
8577,RbVPHO6,2.4192,6.86672800,9.49969600,17.92443700,90.00000000,90.00000000,90.00000000
8578,MnTe6O13,2.4177,8.90271829,8.90271829,8.90271819,71.68181093,71.68181093,71.68180845
8579,TiO2,2.4487999999999994,2.98182700,10.79551500,17.73849700,90.00000000,90.00000000,90.00000000
8580,Cs2TeS3,2.4192,13.04306200,10.28482400,17.64484534,55.49756279,90.00000000,90.00000000
8581,Ta4Ag2O11,2.4460999999999995,12.97141786,12.97141786,12.97141809,27.98686432,27.98686432,27.98686228
8582,BaPr2In2O7,2.4212,5.99061800,5.99061800,20.84855500,90.00000000,90.00000000,90.00000000
8583,V2Pb4(Se2O7)3,2.4239,14.45738494,14.26665234,9.12041561,72.62715194,70.35454269,37.01830537
8584,Na3FeP8O23,2.4377000000000004,12.13834800,12.13834800,12.13834800,90.00000000,90.00000000,90.00000000
8585,YV5(H12O13)2,2.4232,9.50941814,9.93982552,24.00569232,80.37062767,81.62006722,88.96706431
8586,InAgP2O7,2.4485000000000006,8.41253500,7.60782300,10.00021619,68.06733300,90.00000000,90.00000000
8587,CoH8(CO4)2,2.428,6.26158900,8.74814553,11.12341425,71.15939767,84.10049178,71.70470945
8588,Li3V5(H8O11)2,2.4457,9.39430548,10.50242039,17.85584896,90.00000000,90.00000000,90.00000000
8589,Ba4Ga2Fe(S3F2)2,2.4483,6.19338800,12.87266600,19.06479000,90.00000000,90.00000000,90.00000000
8590,B2F3,2.4325,7.50429636,25.10894418,26.10623810,106.73374050,90.00000000,90.00000000
8591,NaSr2IO6,2.4174,5.81201469,5.81201469,5.81201469,60.00000000,60.00000000,60.00000000
8592,Tl3SnI5,2.439,9.11141200,9.87700500,16.50127500,90.00000000,90.00000000,90.00000000
8593,TiAgPO5,2.4369,6.33605600,10.70456800,12.67693300,90.00000000,90.00000000,90.00000000
8594,Pr2SiS5,2.4432,12.60518000,7.60979400,7.87270495,78.73087373,90.00000000,90.00000000
8595,Nd2SiS5,2.4304,12.53226900,7.58490900,7.82848200,78.71393312,90.00000000,90.00000000
8596,NaCaTiMnSi2O8F,2.4156000000000004,9.86857100,7.09324700,10.91350612,72.11027976,90.00000000,90.00000000
8597,Mn4Zn3H10(CO8)2,2.4339000000000004,8.19520198,8.19520198,16.69499007,84.30965160,84.30965160,40.40145290
8598,KPbI3,2.4304,4.78211700,10.56747900,17.45812300,90.00000000,90.00000000,90.00000000
8599,KAlSe2,2.4172000000000002,7.80513459,7.80513459,15.63509484,82.82211427,82.82211427,90.02166605
8600,Sm2(N4O9)3,2.4371,13.42276218,13.42276218,13.42276218,90.00000000,90.00000000,90.00000000
8601,CsMo3I3Cl4,2.4383,10.81364811,10.81364811,16.33798200,90.00000000,90.00000000,120.00000066
8602,Ba5Gd2ZrAl2O13,2.4221,6.06956124,6.06956124,25.46371500,90.00000000,90.00000000,119.99999168
8603,Ba2CaFe2CoF14,2.4169,7.47302068,7.47302068,15.07457118,88.80510106,88.80510106,42.62974234
8604,AlSNCl3,2.4379,10.02673400,7.39832200,9.57478369,64.81121336,90.00000000,90.00000000
8605,Ag2H8C2S2N5ClO3,2.4229,6.53473300,7.88953820,12.09124383,82.47973818,82.76580382,77.40187849
8606,TiNb2ZnO8,2.4236,5.80209300,4.74141800,5.03271067,88.51745870,90.00000000,90.00000000
8607,TiNb(BiO3)3,2.4484000000000004,5.50739400,5.43768600,13.02227030,78.22809505,90.00000000,90.00000000
8608,TiNbTlO5,2.4465000000000003,3.83978800,6.52782800,19.19722000,90.00000000,90.00000000,90.00000000