,pretty_formula,bandgap,cell_length_a,cell_lentgh_b,cell_lentgh_c,cell_angle_alpha,cell_angle_beta,cell_angle_gamma
4070,TmMoBrO4,2.1146000000000003,6.93463800,7.23145890,10.85649611,103.51926857,107.72106499,94.67890173
4071,Hg3Te2SeO10,2.1165000000000003,5.58303500,8.65862400,11.36849113,70.77017865,90.00000000,90.00000000
4072,BaMn9V6(HO13)2,2.1178000000000003,13.02619170,13.02619170,13.02619170,90.00000000,90.00000000,90.00000000
4073,Hg4BiSe2Cl5,2.105,10.68303100,9.72861500,16.97677404,59.35058343,90.00000000,90.00000000
4074,Sr2P7I,2.1057999999999995,10.05334400,10.05334400,10.05334400,90.00000000,90.00000000,90.00000000
4075,Rb4Ge(PS3)4,2.1049,7.53986517,7.53986517,24.04366069,80.98301621,80.98301621,66.42797543
4076,Cs4Ge(PS3)4,2.0929,7.74681707,7.74681707,24.72086898,79.90135559,79.90135559,66.70472658
4077,K2Fe2B2O7,2.0961,8.85979428,8.85979428,8.70620700,90.00000000,90.00000000,120.00000209
4078,Ba3MnV4O14,2.0969,14.26144200,7.31389400,14.36443092,71.15770491,90.00000000,90.00000000
4079,LiH12AuC4(SO3)4,2.0850999999999997,8.40222341,8.40222341,8.40222341,109.82706236,109.82706236,108.76185750
4080,H29Pd3S3N9O10,2.1157,6.93365800,10.48486323,14.22684701,93.15862333,101.18224267,91.84137979
4081,Sm4(SiS4)3,2.1035000000000004,11.34512489,11.34512489,11.34512481,114.77909020,114.77909020,114.77908736
4082,ReSi2(PO5)3,2.1169,7.97299700,7.98536642,11.00054770,106.95660004,85.14039698,119.93007188
4083,SiW12C16(NO10)4,2.088,11.89325283,11.89325283,11.89325283,106.59747604,106.59747604,115.38557524
4084,Ba3Co2(NO2)12,2.1153,10.91483500,10.91483500,10.91483500,90.00000000,90.00000000,90.00000000
4085,Rb2Mo3(As2O11)2,2.0928999999999998,11.89022554,11.89022554,9.64491051,83.19366248,83.19366248,50.22346972
4086,Li2P7(H3N)9,2.0968,9.46052900,9.69813470,13.74151217,99.39369504,91.79838422,118.54168196
4087,Sb2XeClF11,2.1165000000000003,7.56051600,17.79613000,18.33685500,90.00000000,90.00000000,90.00000000
4088,XeNO2F5,2.1010999999999997,5.74635800,6.84038900,15.04553348,73.40915495,90.00000000,90.00000000
4089,Tl3Bi3(PS4)4,2.0969,13.46686783,21.21832243,22.65050972,118.32055130,90.00000000,90.00000000
4090,Cu2As9P3S9I2,2.0858,14.16973600,12.45402200,16.35090380,87.33449412,90.00000000,90.00000000
4091,Hg6P4PbCl6,2.1079,12.13087300,12.13087300,12.13087300,90.00000000,90.00000000,90.00000000
4092,Cs4K3U3Si4O20F,2.0936000000000003,11.91006763,11.91006763,14.48775900,90.00000000,90.00000000,141.30387152
4093,ZrHg4(PCl3)2,2.1134,13.31685200,13.61771200,16.53000400,90.00000000,90.00000000,90.00000000
4094,Re2S(ClO2)4,2.0966,11.11595881,11.11595881,9.74184335,84.08767510,84.08767510,91.71653868
4095,TeS7Br2,2.0936,9.29420300,10.12479400,13.92274000,90.00000000,90.00000000,90.00000000
4096,HfHg4(PCl3)2,2.0914,13.32101700,13.58449300,16.53221300,90.00000000,90.00000000,90.00000000
4097,B10H18C2S,2.0905,7.31449138,10.87886705,33.28953062,90.00000000,90.00000000,93.90546086
4098,BaLa2Ti3O10,2.1030000000000006,14.49959710,14.49959710,7.74441300,90.00000000,90.00000000,164.45632388
4099,RbH12AuC4(SO3)4,2.1037,9.79266800,9.79266800,9.49648900,90.00000000,90.00000000,90.00000000
4100,Ba5Mn3O12F,2.0851,10.51615132,10.51615132,7.78055500,90.00000000,90.00000000,119.99999574
4101,Rb2U3P6O25,2.1170999999999998,16.68340600,6.89928400,20.11834720,82.20707418,90.00000000,90.00000000
4102,KNa4FeO4,2.0875000000000004,6.07157900,10.63873400,18.97363100,90.00000000,90.00000000,90.00000000
4103,TlFe(SO4)2,2.1001,8.96378156,10.35086822,8.35320002,89.99971256,89.99366397,90.00039506
4104,Tl2V3O8,2.1147,9.11103500,9.11103500,5.53164600,90.00000000,90.00000000,90.00000000
4105,V2Fe4Mo3O20,2.1117999999999997,9.68804000,9.68804000,17.44894400,90.00000000,90.00000000,90.00000000
4106,SrU(MoO4)4,2.1054,6.84245300,8.64158800,14.45363910,53.90624285,90.00000000,90.00000000
4107,UH10CSe2(NO2)4,2.1106,7.15243300,9.57209661,9.72191728,88.45645041,109.59736994,103.50422552
4108,Rb2MnI4,2.0997,8.38535800,8.16911100,10.28467564,71.50819758,90.00000000,90.00000000
4109,Pr3Sc2(FeO4)3,2.1169,11.21885508,11.21885508,11.21885508,109.47122063,109.47122063,109.47122063
4110,NaMnFeF6,2.0895,9.18800051,9.18800051,5.10298600,90.00000000,90.00000000,120.00000368
4111,NaMo3(PO7)2,2.117,6.48546400,8.68854600,10.73623861,68.41020510,90.00000000,90.00000000
4112,Na4SrU3O12,2.0882,7.52650381,7.52650381,7.52650381,109.47122063,109.47122063,109.47122063
4113,Na2PdF6,2.0995000000000004,9.35063349,9.35063349,5.30505900,90.00000000,90.00000000,119.99999641
4114,Na3Sc2(WO4)3,2.0978999999999997,9.26284855,9.26284855,7.29261762,75.83817594,75.83817594,96.31808343
4115,PbC12(SF5)2,2.0929,10.64545831,13.85244636,14.79970293,90.00000000,95.61502917,90.00000000
4116,Lu2MoO6,2.1024,9.77822930,9.77822930,5.30642849,74.92613023,74.92613023,67.84260885
4117,La2Ti3(BiO6)2,2.0874000000000006,16.90045426,16.90045426,16.90045426,166.91806290,166.91806290,18.54128998
4118,K2Re3TeC3(SN)3,2.0933,15.35969314,15.35969314,15.35969314,109.47122063,109.47122063,109.47122063
4119,GdZr6(PO4)9,2.0873,8.93088004,8.93088004,23.13728800,90.00000000,90.00000000,120.00000027
4120,Cs2Pb2O3,2.0952,8.04644121,8.04644121,8.04644121,109.47122063,109.47122063,109.47122063
4121,Cs3ReO5,2.0933,9.02874400,9.53175000,9.65883300,90.00000000,90.00000000,90.00000000
4122,Ca2NbFeO6,2.0994999999999995,5.47365861,9.65300858,9.65308697,71.55314298,90.15460502,90.15448843
4123,CCl,2.1107,9.02304800,10.63586919,15.41492720,98.88731810,99.02841771,96.57745452
4124,Ba4Li(BN2)3,2.0895,6.87450619,6.87450619,6.87450619,109.47122063,109.47122063,109.47122063
4125,ZrTi2(PbO3)3,2.1033,3.98997900,4.49244100,11.86100000,90.00000000,90.00000000,90.00000000
4126,TiFe3Bi3PbO12,2.0919,5.45139400,6.00198362,9.69780998,84.28633053,105.52190151,114.75664477
4127,TePb3(ClO2)2,2.0872,7.00605436,7.00605436,5.63700300,90.00000000,90.00000000,132.39979053
4128,TaTiCrO6,2.0845999999999996,4.69157300,10.22035060,9.38048500,62.67964137,90.00000611,89.99993381
4129,Ta3NbV4O20,2.0999,5.62817600,7.07111000,12.06098924,89.92179243,90.00000000,90.00000000
4130,SrCaU2O8,2.0847,12.44045997,12.44045997,12.44046012,18.09322201,18.09322201,18.09322236
4131,SrCaTi2O6,2.0853,5.52465300,5.52903200,7.81389500,90.00000000,90.00000000,90.00000000
4132,Sr3Zr2Nb2O12,2.0865,9.99009321,9.99009321,9.99009290,34.00630162,34.00630162,34.00630223
4133,SrCaNbCrO6,2.1142999999999996,5.58035446,7.91438621,5.62918900,89.99996521,89.99958092,90.03628536
4134,Sr2TaFeO6,2.0867,5.67782421,5.67782421,9.83428001,73.22134512,73.22134512,60.00000000
4135,RbLiMn(BH4)4,2.1001,7.84061857,7.84061857,8.22675900,90.00000000,90.00000000,104.49963351
4136,NbInBi2O7,2.1106,7.63173305,7.63173305,7.63173305,120.56043362,119.78630722,89.70128928
4137,Na6B18Se17,2.1085000000000003,12.35837091,12.35837091,11.37034979,89.01002303,89.01002303,85.16534767
4138,Na4Si2PbSe6,2.0898000000000003,7.13254872,7.13254872,8.03462430,81.42090891,81.42090891,119.88710771
4139,Na2Sr2Nb4O13,2.1115000000000004,7.55667150,7.55667150,7.55667150,120.13497106,119.69816989,90.14498023
4140,LiTiFeO4,2.1076,5.93982787,5.93982787,5.93292606,60.62312655,60.62312655,60.45112557
4141,La2Ti3(BiO6)2,2.0884,16.90068440,16.90008588,3.85163982,83.46570732,83.44801663,13.08627606
4142,Er6Mg(GeS7)2,2.0858,9.73457367,9.73457367,5.87935800,90.00000000,90.00000000,119.99999777
4143,LiAuF4,2.1155,6.41517426,6.41517426,5.01090369,70.02589526,70.02589526,60.00824781
4144,CeZr4O10,2.109,13.32896707,13.32896707,13.32896707,164.12364960,164.12364960,22.52557604
4145,Ce4ZrO10,2.101,13.81323069,13.81323069,13.81323069,164.12384202,164.12384202,22.52530123
4146,Ca2LaGa(FeO4)2,2.0929,11.32209200,5.53362800,5.62764037,89.91381664,90.00000000,90.00000000
4147,CsRe2OsSe4Cl3,2.1060000000000003,10.52345633,10.52345633,15.57382228,89.79736173,89.79736173,120.05711621
4148,Ba3Ta4TiO15,2.1176000000000004,12.72887000,12.72887000,3.98802000,90.00000000,90.00000000,90.00000000
4149,AlH16C2S2NO14,2.098,10.75828900,6.51812600,12.10979197,67.49739205,90.00000000,90.00000000
4150,Tl2Ge2S5,2.0942,10.93924581,10.93924581,9.04367909,80.48721858,80.48721858,90.12215108
4151,Sm2MgS4,2.1012000000000004,7.28994207,7.28994207,7.28994207,110.82742065,110.82742065,106.79159607
4152,CaTi2PbO6,2.0840999999999994,3.90125900,3.90125900,8.17860000,90.00000000,90.00000000,90.00000000
4153,MgO,2.0853,9.52265679,11.01083866,9.36602485,89.57876778,90.69373034,92.52557745
4154,Y2Mg3N4,2.0966,6.76261918,7.25264265,6.07136547,90.00000024,88.24826342,122.42739102
4155,Sb2(CN2)3,2.0844000000000005,10.46701892,6.87981256,29.05150008,89.99999909,157.69739046,70.81360201
4156,Zn3MoN4,2.1146,6.57129323,5.68791151,5.36753720,90.00000000,90.00000000,90.00000000
4157,Mg3Sc2N4,2.0950999999999995,6.18890259,8.69325973,5.67128710,90.00000035,90.41547613,134.61395921
4158,NaSm3SiS7,2.0944,10.19147453,10.19147453,5.75021600,90.00000000,90.00000000,120.00000345
4159,Y4Si2Ni13(SbO14)2,2.0953,5.58093984,9.26354035,12.17945853,87.71043294,76.69377384,79.89466313
4160,Mn(HO)2,2.1067,5.86834500,6.73556345,5.84136581,89.90019422,118.86859889,107.04169441
4161,Sr2FeWO6,2.0959,5.66469079,5.67479368,5.71644643,119.08701894,119.02134960,91.16057535
4162,Co2As2O7,2.0888999999999998,4.86132764,5.45004822,5.45551794,105.33286427,97.34370235,97.46137846
4163,YCr(WO4)2,2.1043999999999996,5.13184004,10.95564426,6.11020334,81.35368599,69.08711774,81.04074061
4164,ZnS,2.0983,15.91043549,15.91043549,15.91043500,13.90878168,13.90878168,13.90878216
4165,K9Ni2O7,2.1161,11.02154605,11.02154605,11.02154605,90.00000000,90.00000000,90.00000000
4166,NaNd(GaS2)4,2.1050000000000004,14.45863970,11.94023379,11.90717458,74.64448375,52.78193830,52.57357794
4167,AgMo2P3O13,2.112,6.49479741,7.24246632,22.73698738,90.00000000,90.00000000,99.77511256
4168,K4SnO3,2.1096,6.58896600,11.50697700,19.11567400,90.00000000,90.00000000,90.00000000
4169,CrF6,2.0865,5.56707873,5.56707873,5.56707861,57.63461082,57.63461082,57.63461117
4170,K3AuSe2,2.0961,8.05377027,8.05377027,8.05376988,68.43770513,68.43770513,68.43770648
4171,Li2MnO2F,2.0922,5.69188301,8.72625400,4.58499401,89.99925013,90.00680592,90.00279120
4172,TaAgP4O13,2.0967000000000002,7.20819700,8.41290500,18.05070900,90.00000000,90.00000000,90.00000000
4173,LiDyS2,2.0907000000000004,6.57617145,6.57617145,6.57617160,34.61023416,34.61023416,34.61023605
4174,ZnAg2P2O7,2.1178,7.90356400,7.90356400,10.61219300,90.00000000,90.00000000,90.00000000
4175,Li2CoSn(PO4)2,2.1138999999999997,4.83822077,22.62931236,6.27073946,90.00206530,89.94620617,90.41493994
4176,Th2S5,2.115900000000001,7.62854100,7.66887100,10.23166400,90.00000000,90.00000000,90.00000000
4177,RbV3O8,2.1,8.71696600,5.13471900,8.20028132,81.05522804,90.00000000,90.00000000
4178,SrTlPS4,2.1011000000000006,6.66648400,8.80321800,12.87678900,90.00000000,90.00000000,90.00000000
4179,Na3GaSe3,2.0844,7.34976500,7.57568300,15.27825199,60.65735978,90.00000000,90.00000000
4180,Ba5Ho8Mn4O21,2.0882,5.78201045,10.29325923,10.29325923,85.47554768,73.68822662,73.68822659
4181,NaSr4(SbO4)3,2.0937,8.20589100,8.23106600,11.57724048,45.32568366,90.00000000,90.00000000
4182,NaVP2O7,2.1093,8.10416700,7.43929900,9.71148436,68.15696234,90.00000000,90.00000000
4183,Sr2SnS3F2,2.0903000000000005,6.01420000,6.03468200,19.09463000,90.00000000,90.00000000,90.00000000
4184,MnSe2O5,2.0877,6.41464200,6.97243200,10.83078300,90.00000000,90.00000000,90.00000000
4185,Ba2TiS4,2.0962000000000005,6.90665700,9.13939000,12.64034800,90.00000000,90.00000000,90.00000000
4186,TiTl2O3,2.0964000000000005,3.86939200,9.89231600,12.79130500,90.00000000,90.00000000,90.00000000
4187,Ba2CdS3,2.0892,4.39563300,9.06803800,17.50500200,90.00000000,90.00000000,90.00000000
4188,K3AsSe3,2.1130999999999998,9.90500700,9.90500700,9.90500700,90.00000000,90.00000000,90.00000000
4189,NiSeO4,2.1076,4.96098944,4.96098944,6.37780900,90.00000000,90.00000000,113.00838057
4190,LiVP2O7,2.1170999999999998,8.31958400,4.89869300,7.04731977,71.71258958,90.00000000,90.00000000
4191,KMnO4,2.0839,5.92929400,7.57734000,9.23189100,90.00000000,90.00000000,90.00000000
4192,Na3MnPCO7,2.0859999999999994,6.82547000,5.20647200,9.09342716,89.91866307,90.00000000,90.00000000
4193,BaMn2V2O8,2.0994,10.08841011,10.08841011,10.08841011,101.09306077,101.09306077,127.96600082
4194,In2Si2O7,2.099,6.75065510,6.75065510,6.75065510,60.00000000,60.00000000,60.00000000
4195,FeBPbO4,2.087,6.03230000,7.09786200,8.56492400,90.00000000,90.00000000,90.00000000
4196,PbF3,2.0876,5.37133200,5.37133200,9.24195800,90.00000000,90.00000000,90.00000000
4197,Ba7MnFe6F34,2.0899,10.42693816,10.42693816,7.84667806,79.89298156,79.89298156,67.54131676
4198,K4SrU3O12,2.0965999999999996,7.59978688,7.59978688,7.59978688,109.47122063,109.47122063,109.47122063
4199,BiPbClO2,2.0992999999999995,6.95597347,6.95597347,5.65433100,90.00000000,90.00000000,131.48421593
4200,CsAgBr2,2.1094,10.43640651,10.43640651,6.04444600,90.00000000,90.00000000,154.16470735
4201,TeSeS(NCl)2,2.0952,8.18806600,8.81618900,20.99026600,90.00000000,90.00000000,90.00000000
4202,Mn(HO)2,2.1135,4.82067874,6.73903720,5.84098202,90.03592565,89.39034159,90.96290465
4203,MnH4(CO3)2,2.1051,6.87715298,6.87674130,10.05636761,54.51768874,125.46483712,130.52156476
4204,Cd2H3ClO3,2.0929,6.92518400,7.59971000,10.04201800,90.00000000,90.00000000,90.00000000
4205,VAg(HO2)2,2.0961,3.70237600,7.24472700,15.86016800,90.00000000,90.00000000,90.00000000
4206,VBP2H5NO9,2.1097,8.43819800,9.54086600,9.80055205,76.57057661,90.00000000,90.00000000
4207,LiCrPO4,2.0877999999999997,4.76496200,6.35235700,10.26081200,90.00000000,90.00000000,90.00000000
4208,Li3V(PO4)2,2.0933,17.95289300,4.92223000,7.89951279,54.34013911,90.00000000,90.00000000
4209,LiVP2O7,2.1029,6.35227000,6.47630462,6.86148409,85.58941028,67.01537005,81.98972940
4210,LiFeP2O7,2.0952,8.30007500,7.00149600,8.96265780,68.46971774,90.00000000,90.00000000
4211,LiVP2O7,2.0913999999999997,5.06472200,8.46256800,13.49257732,63.56613342,90.00000000,90.00000000
4212,ErSeF,2.1121999999999996,4.07901200,9.95609900,18.87984000,90.00000000,90.00000000,90.00000000
4213,Na2MnCl4,2.0979,3.87850600,6.96657800,12.04935600,90.00000000,90.00000000,90.00000000
4214,CsI2Br,2.1123,6.97211000,10.08783300,11.04549800,90.00000000,90.00000000,90.00000000
4215,Rb4In2S5,2.0974999999999997,7.76029500,9.50543538,11.02183758,107.28463532,108.99167459,85.51691056
4216,AuI,2.0942,4.60530200,4.60530200,15.00921400,90.00000000,90.00000000,90.00000000
4217,U(OF)2,2.1165000000000003,6.14428446,6.14428446,6.14428470,40.42473957,40.42473957,40.42473503
4218,SCl2,2.0979,5.18133300,9.73072800,16.82401400,90.00000000,90.00000000,90.00000000
4219,BiClF8,2.1058999999999997,5.39978700,5.92029775,10.77904754,90.57691053,93.60526744,93.71774299
4220,Cs3InO3,2.1089,7.45801400,8.30634900,11.99646967,84.38507648,90.00000000,90.00000000
4221,Ba2Bi2O5,2.1057,7.59682600,6.29630400,7.60207088,79.59995661,90.00000000,90.00000000
4222,Na4Cu2S3,2.0857,19.47401488,19.47401488,19.47401488,151.70020534,151.70020534,40.45126473
4223,AuCN,2.1038,3.66157974,3.66157974,5.11345800,90.00000000,90.00000000,119.99999534
4224,Cd2Ge7O16,2.101,11.46441600,11.46441600,4.71242100,90.00000000,90.00000000,90.00000000
4225,LiIO4,2.1026000000000002,8.69585600,5.38590900,8.55075901,67.44446764,90.00000000,90.00000000
4226,ClF,2.0897,3.73940100,6.56305600,7.33865805,73.81786393,90.00000000,90.00000000
4227,TlIO4,2.0856,7.86525001,7.86525001,7.86525001,135.17467168,135.17467168,65.25892001
4228,BC2N,2.1098999999999997,3.60175000,3.60764300,3.65102300,90.00000000,90.00000000,90.00000000
4229,Tm2MoO6,2.1067,9.84402198,9.84402198,5.32900896,74.89254673,74.89254673,67.85520880
4230,In2PO5,2.0985999999999994,5.32605400,6.45233933,6.93848315,107.80859204,109.27903304,95.63482544
4231,SrUO4,2.1032,5.59088700,8.03664200,8.18862300,90.00000000,90.00000000,90.00000000
4232,ZnPS3,2.0946,6.01046042,6.01046042,7.49258835,82.38528955,82.38528955,119.99643820
4233,Ca(SmS2)2,2.084,7.36281064,7.36281064,7.36281064,109.59167642,109.59167642,109.23057673
4234,Sr(NdS2)2,2.1031999999999997,7.53591247,7.53591247,7.53591247,109.43741706,109.43741706,109.53884895
4235,Sr(PrS2)2,2.0955,7.57297073,7.57297073,7.57297073,109.47683007,109.47683007,109.46000235
4236,CaTa2O6,2.0982000000000003,5.60995610,5.60995610,5.60995610,60.00000000,60.00000000,60.00000000
4237,SrLa4TiAl4O15,2.0965,3.84749900,5.41785800,27.13807000,90.00000000,90.00000000,90.00000000
4238,Na6Sn2S7,2.0947999999999998,7.22199846,7.22199846,15.34021656,80.10128518,80.10128518,97.00239320
4239,InGaS3,2.0929999999999995,6.84357765,6.84357765,18.36269000,90.00000000,90.00000000,119.99999664
4240,SrMo3(PO7)2,2.1135,6.53275700,8.53947900,10.83805463,67.04188539,90.00000000,90.00000000
4241,CoP2PbO7,2.092,8.39556200,5.41442600,14.07302028,67.59011859,90.00000000,90.00000000
4242,Rb2V3O8,2.0930000000000004,9.05429500,9.05429500,5.79995400,90.00000000,90.00000000,90.00000000
4243,Ca4CN4,2.0974,3.57455600,11.46255400,14.05060800,90.00000000,90.00000000,90.00000000
4244,Si6O13,2.0845000000000002,13.92908212,13.92908212,8.62109600,90.00000000,90.00000000,120.00000056
4245,Mg(GaO2)2,2.0993000000000004,5.93022949,5.93022949,28.98331373,89.87551805,89.87551805,60.56344265
4246,Na2SrNd2Ti5O15,2.1103999999999994,5.56517378,5.49475368,38.71192901,90.00000000,90.00000000,89.74574480
4247,Cs2S,2.0952,5.43815700,8.82753600,10.53913400,90.00000000,90.00000000,90.00000000
4248,VH14SO11,2.1036,6.52963700,11.16270200,14.18573406,74.44634100,90.00000000,90.00000000
4249,UV2O8,2.1142,5.84925200,10.72906800,12.15782100,90.00000000,90.00000000,90.00000000
4250,K3GaSe3,2.0915,13.19288200,8.17748400,10.66190891,52.30567507,90.00000000,90.00000000
4251,Co2P2O7,2.0878,4.54549552,5.49560515,9.94568401,89.99984400,89.99870315,98.15955131
4252,K2UCr(IO6)2,2.1162,7.40107800,11.31001100,16.01979070,72.94109917,90.00000000,90.00000000
4253,KU2H5C4O15,2.1170999999999998,13.98351900,5.81569400,9.35420621,81.99530460,90.00000000,90.00000000
4254,NaAg(NO2)2,2.1173,7.75557366,6.95018417,6.76678897,68.84517087,56.69510269,54.45972645
4255,K3Bi(PS4)2,2.0899,6.95283500,9.26403000,24.37786100,90.00000000,90.00000000,90.00000000
4256,TcXeO4F5,2.0953,9.42980819,9.42980819,5.40039200,90.00000000,90.00000000,127.53496167
4257,K2FeF5,2.0949999999999998,7.55976100,13.05866000,20.77814300,90.00000000,90.00000000,90.00000000
4258,K3CrC3N3O4,2.0845000000000002,7.74714000,11.74736500,12.29000769,69.09239333,90.00000000,90.00000000
4259,TiSO5,2.1074,5.30859700,6.65382200,11.20260300,90.00000000,90.00000000,90.00000000
4260,RbNa2AuO2,2.1121,4.12824300,5.66298800,10.08263500,90.00000000,90.00000000,90.00000000
4261,KMnF3,2.1006,6.02760238,6.02760238,6.02760238,120.40934207,120.40934207,89.29244903
4262,VP2Cl7O4,2.1144,8.41265000,8.56916404,10.74807759,92.05221549,103.31110673,105.71443575
4263,Sr5(ReO6)2,2.1063,20.01019380,20.01019380,20.01019414,29.20252479,29.20252479,29.20252268
4264,Hg3As8(S4Br3)2,2.1064,11.95606600,10.20096800,14.65615470,72.02948175,90.00000000,90.00000000
4265,CrHg(PbO3)2,2.0918,6.59371500,7.34566668,7.99263044,90.80943158,93.52878999,110.00300505
4266,AsS,2.1105,10.14236800,8.95815600,10.48269831,82.21654122,90.00000000,90.00000000
4267,VZnSe2O7,2.0903,12.79076100,7.57666200,7.88841066,58.98008364,90.00000000,90.00000000
4268,Na2S,2.1161000000000003,4.34441000,7.14429900,8.39237500,90.00000000,90.00000000,90.00000000
4269,BaMo4(PO8)2,2.0938999999999997,7.85067281,7.85067281,7.85067281,122.09800217,122.09800217,86.40301037
4270,NaUBO5,2.1014,5.92790800,6.90112300,10.82057500,90.00000000,90.00000000,90.00000000
4271,SbXeO2F7,2.0843,5.93005300,10.53429500,12.35155189,86.82319355,90.00000000,90.00000000
4272,SbC(Cl2O)2,2.1067,7.12469600,7.43325175,16.68277045,80.04876021,84.21983890,82.95640403
4273,KCBr(NO2)2,2.0891,6.45918600,7.59838071,7.47057970,116.14758734,103.07832530,97.46012037
4274,ZrMn2Ag4(MoO4)6,2.1062000000000003,5.48845700,19.31785500,21.81884400,90.00000000,90.00000000,90.00000000
4275,K17Fe5O16,2.0907,18.63162981,18.63162981,6.78661201,84.87014828,84.87014828,158.99445074