,pretty_formula,bandgap,cell_length_a,cell_lentgh_b,cell_lentgh_c,cell_angle_alpha,cell_angle_beta,cell_angle_gamma
6546,V2ZnO6,2.2983000000000002,5.02756476,5.02756476,6.66013174,70.24623132,70.24623132,41.70351210
6547,Sb2C4O,2.2911,6.31776500,7.82155300,16.13568300,90.00000000,90.00000000,90.00000000
6548,Na3Au(SO2)4,2.277,10.87045000,5.74633000,18.26514059,80.14488674,90.00000000,90.00000000
6549,Mg2PHO5,2.3016,11.56233179,11.56233179,4.66620000,90.00000000,90.00000000,119.99999882
6550,Yb2Al2O5,2.2843999999999998,3.67516900,3.67516900,7.21893900,90.00000000,90.00000000,90.00000000
6551,Rb3V5O14,2.2826,8.79865274,8.79865274,5.55443200,90.00000000,90.00000000,120.00000553
6552,La3MgAlS7,2.29,10.32703778,10.32703778,6.00804200,90.00000000,90.00000000,119.99999859
6553,La3AlZnS7,2.2696999999999994,10.28280358,10.28280358,5.98890000,90.00000000,90.00000000,119.99999729
6554,Fe(CO)5,2.2883,7.39400707,7.39400707,9.98008188,72.87058391,72.87058391,59.46142246
6555,TaH6C2SeCl5,2.2734,7.60152342,7.60152342,11.48994300,90.00000000,90.00000000,112.64074487
6556,Cs3SbSe3,2.2748,10.87273400,10.87273400,10.87273400,90.00000000,90.00000000,90.00000000
6557,Li2Mg(HN)2,2.3055000000000003,5.13678100,5.23601100,9.76793800,90.00000000,90.00000000,90.00000000
6558,BaCo2(PO4)2,2.2683999999999997,5.04963000,8.25757059,9.33705148,92.38573963,90.00389855,90.00301903
6559,Tm2PbS4,2.2763,3.94601400,11.99528200,14.25956400,90.00000000,90.00000000,90.00000000
6560,La3VH3O8,2.2828,5.74534939,6.40913720,10.79754700,89.99964205,89.99961640,104.42233849
6561,AgI3O8,2.2994,13.41058127,13.41058127,13.41058127,144.15640086,144.15640086,51.59348248
6562,MnB2(H7N)2,2.2965999999999998,8.82837800,9.45307600,18.03328900,90.00000000,90.00000000,90.00000000
6563,TeHO3,2.284,4.82682600,8.17201600,12.31589200,90.00000000,90.00000000,90.00000000
6564,LiCeF5,2.2762,11.05723151,11.05723151,11.05723151,95.21203506,95.21203506,144.91661930
6565,KYH14(C2O3)6,2.3023000000000002,8.36446704,12.11095644,19.42699806,90.11823689,77.56807886,90.54924037
6566,CuAs12P4S12Cl,2.2937,13.79825357,13.79825357,21.93252100,90.00000000,90.00000000,119.99999796
6567,CuAs12P4S12Br,2.2876,13.77325859,13.77325859,22.05949000,90.00000000,90.00000000,120.00000283
6568,CrCoH15N5ClO8,2.2943,7.80094552,7.80094552,10.26816300,90.00000000,90.00000000,112.55112233
6569,Co3B7O13F,2.2766,8.63433637,8.63433637,8.63433671,59.47842676,59.47842676,59.47842891
6570,Sm4GaSbS9,2.298,10.04908990,10.04908990,13.72453400,90.00000000,90.00000000,90.85568963
6571,Na3Fe2P2O8F3,2.2702999999999998,10.75578209,12.93818629,12.95543121,90.00000000,90.00000000,90.00000000
6572,Bi(W2Cl5)3,2.2981,12.71534000,14.00425500,15.71111282,61.25742384,90.00000000,90.00000000
6573,B8P2H39RhC13,2.2866999999999997,10.28574546,16.62379630,17.17311098,118.34626958,90.00000000,90.00000000
6574,V4Fe2O13,2.2986,9.56080100,8.59668700,14.89908958,76.15214115,90.00000000,90.00000000
6575,H24AuC16S2N3O4,2.2998000000000003,10.70791300,11.15020375,11.44239985,112.45657075,95.21982466,102.46627603
6576,Cs4Ge5(PbS4)4,2.2965,20.01857062,20.01857062,19.97744200,90.00000000,90.00000000,152.74690999
6577,PbI2,2.2999,4.66146242,4.66146242,86.88354500,90.00000000,90.00000000,120.00000601
6578,AgH7CN8O7,2.2768,22.49511900,6.52003500,7.38262579,88.02067914,90.00000000,90.00000000
6579,Ba18In8(S7F6)3,2.2908999999999997,12.88886668,22.46104942,22.46104942,90.00000000,90.00000000,90.00000000
6580,Sr3MoO6,2.3012999999999995,6.07445454,6.07445454,6.07445454,60.00000000,60.00000000,60.00000000
6581,Sr2NbCrO6,2.3058,8.01609300,8.01609300,9.81766838,65.90515958,65.90515958,90.00000000
6582,ThGeI6,2.2711,7.57850984,7.57850984,13.99692100,90.00000000,90.00000000,119.99999862
6583,TlMo2P3O13,2.2821000000000002,19.71814600,6.49308300,9.95432705,72.73880652,90.00000000,90.00000000
6584,SmMoO5,2.2877,12.80044900,5.44173700,7.09425497,63.45869680,90.00000000,90.00000000
6585,RbSb2PO8,2.2799,7.30036261,7.30036261,15.26586699,84.28487889,84.28487889,59.36292363
6586,SbTe8Cl6O6F31,2.2963,9.36618000,10.66431578,10.81484452,83.50542030,86.18252569,75.65719533
6587,Rb2Si2Se5,2.3037,11.52559315,11.52559315,9.57690002,79.16128837,79.16128837,90.10730361
6588,Na2GdTa5O15,2.3047000000000004,12.61211400,12.61211400,3.92434600,90.00000000,90.00000000,90.00000000
6589,H6C2SN3O2,2.2975,10.67526648,10.67526648,9.32592141,66.92905090,66.92905090,39.60915495
6590,FePt(CN)6,2.2674000000000003,7.17428277,7.17428277,7.17428277,60.00000000,60.00000000,60.00000000
6591,CsNbCl6,2.2946999999999997,7.14469056,7.14469056,12.85239121,79.44541342,79.44541342,55.47394662
6592,Fe2PCO7,2.2885,6.46272700,9.66777600,10.21108709,63.56830719,90.00000000,90.00000000
6593,CsRbMo3P3O17,2.3034999999999997,9.71158500,10.99892800,16.02131593,68.56286102,90.00000000,90.00000000
6594,Ba2MnCdFe2F14,2.2931,7.53005632,7.53005632,15.14183409,88.98260255,88.98260255,42.44348024
6595,AsH8NO4,2.2872,7.44687393,7.44687393,7.44687393,107.43288492,107.43288492,113.62964710
6596,AgMo6Cl13,2.2960000000000003,9.10534400,9.20250107,14.18336435,96.19103030,102.40780341,114.43172675
6597,Cs2Mo3P3O17,2.2994,9.78050300,11.14224400,16.11614499,68.26641744,90.00000000,90.00000000
6598,Zn3Cd3(BO3)4,2.2784,6.49392230,6.49392230,6.49392222,81.86436618,81.86436618,81.86435720
6599,YTaBi2O7,2.2864000000000004,7.70475266,7.70475266,7.70475266,120.32677548,119.89815684,89.80571519
6600,Tl2Mo2P2O11,2.2966999999999995,10.38681600,10.13783800,10.14154323,82.30742660,90.00000000,90.00000000
6601,Ti2MnZnO6,2.3043,5.60982189,10.31480509,7.62076994,90.00292102,83.46050977,90.01544881
6602,Ti3Bi6WO18,2.2833999999999994,5.40779000,5.45382886,13.06682664,90.40964054,101.78953406,89.93185012
6603,Ta12MoO33,2.2819000000000003,11.45759689,11.45759689,17.96622001,57.10988113,57.10988113,19.39697241
6604,Ta4FeCoO12,2.2719999999999994,6.80292873,6.82089202,10.42035422,70.89766562,70.93542227,90.00037062
6605,Ta3Sb(PO4)6,2.3032,9.12106866,9.12106866,9.12106874,58.31086711,58.31086711,58.31086677
6606,SrLaCrO4,2.2736,5.54950978,13.07362324,5.54949493,77.74806235,89.99920425,102.25204932
6607,Ta6Mn2FeO18,2.291,10.53330145,10.53330145,11.58229079,58.19970115,58.19970115,37.94349374
6608,Sr4Se3S,2.2823,14.65176211,14.65176211,14.65176214,17.33043321,17.33043321,17.33043613
6609,Sr3PbS4,2.2923,4.28493700,6.05348800,8.57288200,90.00000000,90.00000000,90.00000000
6610,Sr2Fe3Sb(PO4)6,2.3053,9.12999437,9.12999437,9.12999463,56.24255070,56.24255070,56.24254916
6611,Rb2Mo(OF2)2,2.2705,7.88218188,7.88218188,7.25214653,89.59234358,89.59234358,134.46058798
6612,Nd2NbGaO7,2.3011999999999997,7.44451157,7.44451157,7.44451157,120.84688899,119.34750207,89.83665376
6613,NaBi3(BrO2)2,2.2883,6.99968526,6.99968526,5.63169000,90.00000000,90.00000000,132.53516208
6614,Na5Ca2Fe3(PO4)6,2.2714,6.57443200,8.84173509,9.06218977,91.24852219,107.32149296,106.56263114
6615,Na3PrTi2Nb2O12,2.2837000000000005,5.53177000,5.58874703,7.87165176,89.91439910,89.97146730,89.96516374
6616,MgTi4MnZnNiO12,2.2861999999999996,5.12644924,5.56283515,17.15460939,87.09281265,81.38167779,62.58817317
6617,CaTeO4,2.2712,5.07113000,5.30782300,12.82293800,90.00000000,90.00000000,90.00000000
6618,MgTe(PbO3)2,2.282800000000001,5.70867100,5.71013198,5.71368958,60.13722316,60.15019257,60.08295813
6619,Mg2Fe5(SiO3)8,2.2773,10.36248885,10.36248885,5.37882023,84.64328136,84.64328136,124.31000241
6620,LiTiCrO4,2.2833,5.05654800,9.64785700,5.96997400,90.00007402,89.99999040,90.00031898
6621,LiLa3MnO7,2.2799000000000005,5.56566228,5.44724800,10.51059991,89.99987799,74.67212515,89.99968781
6622,KLaTa2O7,2.3040000000000003,11.33815099,11.33815099,3.90947100,90.00000000,90.00000000,160.08147262
6623,KLuTa2O7,2.2807000000000004,7.50806493,7.50806493,7.50806493,121.21817051,120.18245178,88.79363604
6624,MgAl8Fe3Si8(H2O5)8,2.3046000000000006,12.34688442,12.34688442,5.17762932,89.96949729,89.96949729,111.61669102
6625,K2NaNb(OF2)2,2.2955,6.08373758,6.08373758,6.08373758,119.25012591,119.25012591,91.30380248
6626,K2Nd2Ti3O10,2.2689,15.19820412,15.19483684,3.90434391,82.66829464,82.57028466,14.76142070
6627,K2MnH8(SO6)2,2.2979000000000003,7.78954800,7.79287988,10.05709261,86.09688518,86.02571216,77.72038618
6628,H2PtPbI6O19,2.3042000000000002,7.66195000,7.67995167,7.69985147,96.93113545,97.31884823,97.57137232
6629,CsMgCoF6,2.2687,7.39053023,7.39053023,7.39053023,120.90217694,119.22422809,89.89671897
6630,Cs3Er5(PS4)6,2.2701,10.39362307,10.39362307,20.86577793,79.67882168,79.67882168,77.98851011
6631,CaBiNO5,2.2904,7.89261555,7.89261555,7.89261555,152.36094609,146.83772910,43.69625662
6632,BaSrCaMoO6,2.278,5.96205002,5.96205002,5.96205002,60.00000000,60.00000000,60.00000000
6633,BaLaTiCrO6,2.2677000000000005,7.96480100,9.75484877,7.96480100,65.90515959,90.00000000,65.90515959
6634,Ca2Ti5(Bi2O9)2,2.2697000000000003,24.59312691,24.59312691,5.47219100,90.00000000,90.00000000,167.12088234
6635,Ba2Li3Y3(MoO4)8,2.276,5.29310600,6.97660703,19.32710549,89.05269416,88.90205182,68.04069445
6636,Ho2MgS4,2.3048,7.16272647,7.16272647,7.16272647,110.48753612,110.48753612,107.45716908
6637,DySbO4,2.3017999999999996,5.39743400,7.57128300,7.68906725,81.11413090,90.00000000,90.00000000
6638,ErSbO4,2.271,5.37759600,7.56184100,7.67704076,80.74436829,90.00000000,90.00000000
6639,K4P4H6WO14,2.2782,11.81315951,11.81315951,14.25402534,62.43021957,62.43021957,37.01368127
6640,BiSb3(PO4)6,2.2741,12.32428727,12.32428727,12.32428792,89.34905708,89.34905708,89.34905536
6641,HoSbO4,2.2886999999999995,5.38253700,7.55572900,7.68353888,81.10911215,90.00000000,90.00000000
6642,KVPO4F,2.3034,6.49820000,10.83800200,13.04120400,90.00000000,90.00000000,90.00000000
6643,Ge7PbN10,2.2915000000000005,7.32333164,7.12962249,10.34353387,90.00000000,105.58202353,90.00000000
6644,Si7CN10,2.2702,7.10746123,6.95885813,9.88643713,90.00000000,106.86334381,90.00000000
6645,LiV2FeO7,2.2984,13.66713499,8.30825222,14.59003274,90.00000000,96.37761388,90.00000000
6646,Ca2AlBiO5,2.2914999999999996,5.67084273,6.01830685,8.75300836,110.00924042,107.61252882,89.98814227
6647,Na2Se,2.2807999999999997,4.84615067,4.84615067,4.84615067,60.00000000,60.00000000,60.00000000
6648,Co(HO)2,2.2964,3.19638593,4.80422696,5.59126079,93.13420777,90.00050040,90.00150398
6649,FeO,2.3029,3.10229376,5.37569584,5.44381721,110.55665729,91.09699170,89.94660036
6650,VOF2,2.2758000000000003,5.31012356,5.38601273,9.23027741,106.36325924,105.61530559,60.75216031
6651,Li4Y3VO8,2.2997,5.87913434,8.60922007,8.50801103,86.79607303,108.38609623,72.96952760
6652,Zn2FeWO6,2.2766000000000006,5.26655878,7.98431164,5.30538960,88.36713515,90.06171702,89.99395221
6653,Mg2MnWO6,2.2941999999999996,5.26949908,5.39108300,7.86904259,90.00041810,89.99990026,90.00204200
6654,CoBi6(SO8)2,2.3034000000000003,5.66734393,31.21206626,8.99577991,88.32048022,108.36081077,90.00595007
6655,NaCo2H3(SeO5)2,2.2935,5.55247959,10.06618639,7.76751951,72.77926083,83.96240498,96.53545956
6656,YN,2.2998,3.74482761,3.74482761,3.74482761,60.00000000,60.00000000,60.00000000
6657,SmSbO4,2.2899,5.49646500,7.67558000,7.73522880,80.40355641,90.00000000,90.00000000
6658,BaZnSnS4,2.2710999999999997,15.59672473,12.91352939,12.61563225,75.30454567,53.21419146,51.48126287
6659,Sc2Cd3(GeO4)3,2.3032,10.95318447,10.95318447,10.95318447,109.47122063,109.47122063,109.47122063
6660,Li2TeO4,2.2672,6.13451700,6.13451700,8.46095000,90.00000000,90.00000000,90.00000000
6661,Sm2SeO2,2.2962000000000002,3.95649150,3.95649150,6.98478600,90.00000000,90.00000000,119.99999157
6662,Ca3UO6,2.2988,6.78718122,6.78718122,6.78718077,91.22866441,91.22866441,91.22865786
6663,Ba2SiSe4,2.2783999999999995,7.12572800,7.07032900,9.30405178,71.59136806,90.00000000,90.00000000
6664,Ta2O5,2.2896,3.87120601,3.90443473,13.12844843,90.00002071,89.99996102,90.00000113
6665,Sr2CeO4,2.2917,3.63487800,6.15604000,10.46395400,90.00000000,90.00000000,90.00000000
6666,Li3AuS2,2.2827,7.11514333,7.11514333,7.11514333,131.82139592,126.90603036,74.49543244
6667,Sm3NbS3O4,2.2864,6.73897800,7.72392500,14.36753900,90.00000000,90.00000000,90.00000000
6668,CoP2WO8,2.2723999999999998,4.95730970,10.13843950,5.98647715,90.01532627,89.97756703,92.09093496
6669,CaVP2O7,2.3013,6.31599183,12.54203529,7.14927972,83.55186512,88.61600005,96.15964492
6670,SrZnCr(PO4)2,2.2758,5.60995074,6.95922212,9.39964014,109.39576169,102.65584339,98.79594197
6671,Nb2Zn2FeO8,2.2785,10.20745992,10.20745992,5.30215463,89.27862439,89.27862439,34.04560420
6672,BaLiCoF6,2.2746,10.34935200,5.62837100,8.54480610,88.75843035,90.00000000,90.00000000
6673,K3SbSe3,2.2951,9.98064000,9.98064000,9.98064000,90.00000000,90.00000000,90.00000000
6674,Sr2NbN3,2.299,6.42264675,6.42264675,12.65584547,88.81984773,88.81984773,123.35831524
6675,LiInGeO4,2.2777999999999996,5.06879800,6.17447400,10.89044400,90.00000000,90.00000000,90.00000000
6676,La4MnS6O,2.285800000000001,9.50805460,9.50805460,6.86594100,90.00000000,90.00000000,120.00000419
6677,ErPtF7,2.3045999999999998,5.51558000,8.81852200,11.92920109,62.57440702,90.00000000,90.00000000
6678,TiO2,2.2882,5.18107500,5.51182400,9.27393500,90.00000000,90.00000000,90.00000000
6679,Tm2S3,2.2738000000000005,10.86485161,10.86485161,10.86485161,109.47122063,109.47122063,109.47122063
6680,NaMnCrF6,2.2911,9.16243434,9.16243434,5.09068600,90.00000000,90.00000000,120.00000247
6681,BaTm2NiO5,2.2826,3.77038422,5.74027907,6.60388842,115.76070741,106.58676450,89.99999999
6682,NaCr(WO4)2,2.2864999999999998,5.80622700,5.08423100,9.97987513,89.15041339,90.00000000,90.00000000
6683,Sr2CaMoO6,2.2697999999999996,5.90686882,5.90686882,5.90686882,60.00000000,60.00000000,60.00000000
6684,VCrMoO7,2.2702,5.64009100,6.75485166,8.02104438,96.01776598,90.03781601,101.40602234
6685,CoWO4,2.2831,4.70136494,5.06170178,5.76685002,89.99481530,90.00444228,90.76203765
6686,HgWO4,2.2989,6.58503242,6.58503242,5.27409946,69.22287503,69.22287503,56.33518303
6687,Ba2CaMoO6,2.2862000000000005,6.01085736,6.01085736,6.01085736,60.00000000,60.00000000,60.00000000
6688,BaV2(PO5)2,2.2711,9.35086900,5.29680200,16.58598520,87.26925142,90.00000000,90.00000000
6689,BaGd2PtO5,2.2799,6.68901900,6.68901900,5.96272100,90.00000000,90.00000000,90.00000000
6690,As2PbO6,2.2701000000000002,4.97364036,4.97364036,5.57759700,90.00000000,90.00000000,120.00000473
6691,NaNdMnWO6,2.2988000000000004,5.70578100,5.58463800,8.07138870,89.90245062,90.00000000,90.00000000
6692,MgTe(PbO3)2,2.2799000000000005,5.71081074,5.71081074,5.71081074,60.00000000,60.00000000,60.00000000
6693,Mn4Be3Ge3SeO12,2.2726,8.61585000,8.61585000,8.61585000,90.00000000,90.00000000,90.00000000
6694,K4PbO3,2.279,6.66701500,11.74599600,18.97148100,90.00000000,90.00000000,90.00000000
6695,Rb3InS3,2.2968,8.25736326,8.25736326,8.03505727,83.73492625,83.73492625,113.47068171
6696,SrCeO3,2.3064,6.04901600,6.20567500,8.66781000,90.00000000,90.00000000,90.00000000
6697,Li2MoF6,2.274,4.79603200,4.79603200,9.33733900,90.00000000,90.00000000,90.00000000
6698,CaIn2O4,2.2932999999999995,6.63441240,6.63441240,6.63441240,60.00000000,60.00000000,60.00000000
6699,Na3In2(AsO4)3,2.2756,9.28109447,9.28109447,6.97385986,73.77617971,73.77617971,92.77833041
6700,CsICl2,2.3019,5.62441836,5.62441836,5.62441872,71.49935412,71.49935412,71.49935863
6701,Ca2MnAs2(H2O5)2,2.2974,13.16734400,5.79170600,5.95453537,71.86912968,90.00000000,90.00000000
6702,SrH2N2O5,2.2796,9.07200400,4.54314400,12.75231253,80.61060965,90.00000000,90.00000000
6703,MnAsH2O5,2.2829,5.35412993,8.19463635,10.32202648,69.73571939,96.18795435,108.10674410
6704,LiCrPO4F,2.2821,5.20330500,5.35509863,7.28399711,106.97999773,108.37660223,98.10905652
6705,LiMo2P3O13,2.3002000000000002,22.54342500,6.46198100,7.14715806,81.20946629,90.00000000,90.00000000
6706,LiV(PO3)4,2.2741,7.32233286,7.32233286,9.98748669,67.47764473,67.47764473,70.40154577
6707,LiV(PO3)4,2.3064,13.73461000,5.26903100,7.26328732,82.74125570,90.00000000,90.00000000
6708,Ca3AsBr3,2.2924999999999995,5.96588800,5.96588800,5.96588800,90.00000000,90.00000000,90.00000000
6709,Li2ThN2,2.2802999999999995,3.69915457,3.69915457,5.54453800,90.00000000,90.00000000,120.00001028
6710,As4S3,2.3035,8.86684800,9.74478900,10.94458600,90.00000000,90.00000000,90.00000000
6711,SrSe,2.2914000000000003,4.45749508,4.45749508,4.45749508,60.00000000,60.00000000,60.00000000
6712,BPS4,2.2994,6.69368385,6.69368385,6.69368385,133.48033415,124.24002133,75.47712437
6713,NbPCl10,2.2866999999999997,7.34782100,7.59511166,14.17640375,91.08803076,91.15233429,106.27276026
6714,Na2Te,2.2825,5.18352546,5.18352546,5.18352546,60.00000000,60.00000000,60.00000000
6715,AlICl6,2.2907,11.86251800,6.35432700,7.43599922,81.50254497,90.00000000,90.00000000
6716,Ba3NiO4,2.29,7.24463808,7.24463808,7.24463808,66.61914621,66.61914621,66.61914623
6717,SBr,2.3074,4.75365386,4.75365386,14.25809500,90.00000000,90.00000000,108.49930724
6718,Li3AsS3,2.2909999999999995,6.69607800,8.14443000,9.90269600,90.00000000,90.00000000,90.00000000
6719,BaCN2,2.2874,9.12135690,9.12135690,9.12135649,112.73643947,112.73643947,112.73644079
6720,Rb3TlCl6,2.274,8.07853000,12.92239300,13.50280877,71.94391918,90.00000000,90.00000000
6721,Hg2TeO3,2.2720000000000002,3.81499800,6.04243300,11.70946600,90.00000000,90.00000000,90.00000000
6722,UCO5,2.2866,5.82616276,5.82616276,5.82616276,136.18127139,130.36472649,68.33464386
6723,La(NO2)3,2.2955,6.23070719,6.23070719,6.23070647,114.82629155,114.82629155,114.82628240
6724,MgPSe3,2.2957,8.35469115,8.35469115,8.35469126,45.47503501,45.47503501,45.47503469
6725,Ag2SO3,2.3013000000000003,8.11016000,4.71789700,10.50308865,68.25794991,90.00000000,90.00000000
6726,U(BO3)2,2.2685000000000004,6.68110090,6.68110090,10.84815003,60.39691011,60.39691011,36.85724932
6727,Tl2Cr2O7,2.2977,7.53523800,7.74458546,7.92364084,108.10319573,91.47692726,111.17845443
6728,LiV(PO3)4,2.2834,8.59124252,8.59124252,7.81992237,82.13281440,82.13281440,113.33572638
6729,Ac2S3,2.2732,14.98082363,14.98082363,14.98082363,144.73079509,144.73079509,50.73588280
6730,LiMgN,2.2706999999999997,3.54385938,3.54385938,3.54385938,60.00000000,60.00000000,60.00000000
6731,Sr(ErS2)2,2.2745999999999995,7.35091225,7.35091225,7.35091225,109.42310417,109.42310417,109.56749648
6732,PrPS4,2.2849,12.52554275,12.52554275,12.52554275,127.40150157,127.40150157,77.59659799
6733,TaFeO4,2.2707,5.10646200,5.67868500,9.38412200,90.00000000,90.00000000,90.00000000
6734,CaTiO3,2.3053,5.40776000,5.50742900,7.69401200,90.00000000,90.00000000,90.00000000
6735,NaSm3Ti2(SbO7)2,2.2791,7.34789000,7.38686500,12.72961603,54.89425673,90.00000000,90.00000000
6736,BaZnO2,2.2892,5.97230042,5.97230042,6.82699600,90.00000000,90.00000000,120.00000461
6737,Sr4PtO6,2.2920999999999996,6.96296860,6.96296860,6.96296832,90.19061173,90.19061173,90.19060346
6738,K2ZrFe(PO4)3,2.2784,10.22476300,10.23061500,20.43212879,89.95328482,90.00000000,90.00000000
6739,K4MgFe3(PO4)5,2.2881,9.85975688,9.85975688,9.66376560,89.88085875,89.88085875,89.74729322
6740,Zn(GaS2)2,2.2764999999999995,6.47834167,6.47834167,6.47834167,131.02102227,131.02102227,71.77968120
6741,Li2V(PO3)5,2.2954,13.46223800,5.17931300,8.84052826,78.22907189,90.00000000,90.00000000
6742,Ba2GeS4,2.2977000000000003,6.90167200,9.09494400,12.59050400,90.00000000,90.00000000,90.00000000
6743,SiI2,2.2811,17.01716300,11.59220700,17.28583902,60.17006770,90.00000000,90.00000000
6744,V3CdO7,2.2988999999999997,5.37713500,10.46294000,10.65375200,90.00000000,90.00000000,90.00000000
6745,K2MnH4(SeO5)2,2.2683,6.13921400,7.79378205,7.95384328,66.85132397,77.94705905,73.20507460
6746,K4CO4,2.3069,5.40425947,5.40425947,5.40425950,88.92703289,88.92703289,88.92702339
6747,K4CO4,2.3024999999999998,5.41197600,5.41197600,5.41197600,90.00000000,90.00000000,90.00000000
6748,Ba3Lu2Zn5O11,2.2901999999999996,9.62934055,9.62934055,9.62934055,60.00000000,60.00000000,60.00000000
6749,Cr2P2O7,2.2708999999999997,11.10214552,11.10214552,9.42802701,84.03650223,84.03650223,45.22822452
6750,Li2U3V2O15,2.2733999999999996,13.55405316,13.55405316,13.55405316,148.10310399,148.10310399,45.73318653
6751,Ba5Re3NO18,2.2999,11.46720625,11.46720625,7.81435000,90.00000000,90.00000000,120.00000147