,pretty_formula,bandgap,cell_length_a,cell_lentgh_b,cell_lentgh_c,cell_angle_alpha,cell_angle_beta,cell_angle_gamma
3654,H4CN4O,2.0513,4.62235700,7.59479323,11.37541082,105.20114034,91.38947467,105.01037118
3655,Pr2P3H5WO9,2.0732,8.67591500,9.32845700,13.70922437,67.77071081,90.00000000,90.00000000
3656,KUH3SO8,2.0831,8.58869600,8.38565500,11.63749789,67.88061434,90.00000000,90.00000000
3657,NaVPO4F,2.0793,6.37621600,10.79749800,12.88533500,90.00000000,90.00000000,90.00000000
3658,KAuF6,2.0562,5.16986201,5.16986201,5.16986270,98.67175130,98.67175130,98.67174980
3659,WO3,2.0754,12.09075275,11.53019631,12.57701309,83.67375996,91.09693366,87.58129874
3660,MgO,2.0732,9.69096352,10.04789594,10.20246472,99.04009995,87.40650196,89.30835824
3661,Li3W2N5,2.0505,9.16157055,11.51280541,8.40530224,90.00016320,62.69516732,128.92651807
3662,Li4V2Si(PO6)2,2.0655,8.91937589,8.91887700,8.62414139,58.05015525,121.95189884,119.33194671
3663,Zn3Cr2(Si2O7)2,2.0617,9.03078691,9.03078691,9.89247951,61.53424764,61.53424764,50.29927411
3664,CoF3,2.0545,5.41894484,5.42717682,8.59049045,71.58449244,107.96411287,90.00177775
3665,Nb2Co4O9,2.0764,5.21472082,5.22288338,14.31262784,90.08050155,90.06389233,60.05604724
3666,Li2CrO2,2.08,4.73515477,6.86261829,6.86263876,90.71755155,101.51015258,101.50999527
3667,Ca2CrSbO6,2.082,5.45293159,5.60156406,7.83951800,89.99727962,90.00191986,89.99137086
3668,Ca3MnCoO6,2.0785,6.40108250,6.40764539,6.41171007,91.99677790,91.97386558,91.95699818
3669,Li2VOF4,2.0690999999999997,3.70099193,11.52468270,9.99363121,64.28790689,90.14719367,99.10361112
3670,Ba2MgUO6,2.0589000000000004,5.99504080,5.99504080,5.99504080,60.00000000,60.00000000,60.00000000
3671,K2NaRhF6,2.066,6.02434189,6.02434189,6.02434189,60.00000000,60.00000000,60.00000000
3672,K2Pd(NO2)4,2.074,12.93821800,7.91632900,9.71498067,82.56855440,90.00000000,90.00000000
3673,MgNiF6,2.0593,5.22190288,5.22190288,5.22190296,56.45501505,56.45501505,56.45500611
3674,GeI2,2.066,4.30463060,4.30463066,23.37038236,90.00000276,90.00000153,120.00000166
3675,MnAl(WO4)2,2.0498000000000003,5.12191622,5.67213800,9.27605490,89.99957436,91.47111537,89.99919062
3676,LiYS2,2.0688000000000004,6.58499774,6.58499774,6.58499749,34.59085480,34.59085480,34.59085274
3677,KBaNbS4,2.074,7.07453800,9.33424200,12.76918900,90.00000000,90.00000000,90.00000000
3678,K2V3O8,2.0485,9.02440700,9.02440700,5.50644300,90.00000000,90.00000000,90.00000000
3679,KVP2O7,2.0646,10.25862700,7.50195400,8.33943567,73.11663838,90.00000000,90.00000000
3680,Cr4Co3(PO4)6,2.0835999999999997,6.37225566,7.96230592,9.41149580,105.20929395,108.31695000,101.55592284
3681,Pr2SiTeO4,2.0836999999999994,6.40156200,7.32151500,11.35593300,90.00000000,90.00000000,90.00000000
3682,Sr3SmRhO6,2.0589,6.90137951,6.90137951,6.90137982,91.85553426,91.85553426,91.85553215
3683,BaNd2NiO5,2.0531,3.86405797,5.98710180,6.89674291,115.72239409,106.26777795,89.99806836
3684,LiV(SiO3)2,2.0567,6.62470558,6.62470558,5.36607803,74.41922341,74.41922341,83.73454912
3685,VFeMoO7,2.0498,5.65362600,6.81231286,8.05014958,95.73877650,90.17631854,101.41301049
3686,BaMnO3,2.0629,10.05463223,10.05463223,5.04545600,90.00000000,90.00000000,120.00000149
3687,VSO5,2.0835999999999997,4.18995200,9.01635675,9.01635675,90.00000000,90.00000000,90.00000000
3688,Co(AsO3)2,2.0656999999999996,4.86103700,4.86098520,9.11146800,89.99980204,90.00040770,120.00034574
3689,VCrO4,2.0549,5.07948989,6.19175100,5.07948975,90.00000000,112.49208534,90.00000000
3690,Na3VS3O,2.0579,7.74594436,7.74594436,5.97305200,90.00000000,90.00000000,101.86778518
3691,NaCoF3,2.0686,5.48913900,5.66920800,7.88250100,90.00000000,90.00000000,90.00000000
3692,Fe2(MoO4)3,2.0545,9.46320500,9.54811700,13.18288500,90.00000000,90.00000000,90.00000000
3693,Sn(PbO2)2,2.08,8.92044400,8.92044400,6.48238000,90.00000000,90.00000000,90.00000000
3694,K2CaNi(NO2)6,2.0571,7.40337123,7.40337123,7.40337123,60.00000000,60.00000000,60.00000000
3695,Fe(IO3)3,2.0837,9.34759771,9.34759771,5.42366900,90.00000000,90.00000000,119.99999796
3696,BiPO4,2.0770999999999997,6.81149000,6.77859900,9.03536061,53.96018506,90.00000000,90.00000000
3697,CuW3Br7,2.0637999999999996,13.77470400,13.77470400,13.77470400,90.00000000,90.00000000,90.00000000
3698,K2TeBr6,2.0783,7.73101764,7.73101764,7.73101764,60.00000000,60.00000000,60.00000000
3699,Hg3AsClO4,2.053,8.64546900,8.64546900,8.64546900,90.00000000,90.00000000,90.00000000
3700,KH2N,2.0676,3.82406100,4.62500700,6.28316708,84.53889567,90.00000000,90.00000000
3701,K2H12Ru(SO7)2,2.0825,12.45810700,6.22444800,8.98158780,75.07559236,90.00000000,90.00000000
3702,Li2VPCO7,2.0515,6.40130900,9.68192667,10.06440463,117.33684841,89.99999065,90.00084946
3703,LiV2P5O16,2.0597,6.81572600,5.08218700,18.86099761,89.77797333,90.00000000,90.00000000
3704,LiFe4(PO4)3,2.055,8.85226504,8.85226504,6.58688317,73.66857999,73.66857999,95.60324474
3705,LiCo2P5O16,2.0652999999999997,6.59185500,4.88527300,18.43409045,88.76625805,90.00000000,90.00000000
3706,MnPO4,2.0798,4.72858699,4.72858125,6.57144900,89.99848461,90.00121093,68.34928989
3707,Li3V(PO4)2,2.0741000000000005,4.91790612,4.91790612,6.27619655,89.65095049,89.65095049,67.54643468
3708,LiVP2O7,2.0835999999999997,5.05126300,6.82017543,8.30927509,67.95047586,87.63716608,87.64802994
3709,LiV(PO3)4,2.0582000000000003,8.57665153,8.57665153,13.17244276,45.08467094,45.08467094,50.86823624
3710,Li9V3P8O29,2.0808,9.88202638,9.88202638,13.81282700,90.00000000,90.00000000,120.00000257
3711,Li3Fe3(PO4)4,2.0788,8.13173500,7.75538000,10.15389863,84.71213048,90.00000000,90.00000000
3712,CsSnI3,2.0701,4.83229000,10.76502600,18.14727700,90.00000000,90.00000000,90.00000000
3713,BaU2O7,2.0765,7.96600129,7.96600129,7.96600129,126.24097531,126.24097531,79.49244154
3714,GeI2,2.0732,4.30738403,4.30738403,24.61198100,90.00000000,90.00000000,120.00000043
3715,LaI3,2.0709,8.12122647,8.12122647,10.16318100,90.00000000,90.00000000,148.21901166
3716,P4Se3I2,2.0711,12.38891161,12.38891161,12.38891161,117.68390353,117.68390353,94.06070892
3717,Y2NCl3,2.0584,8.46070289,8.46070289,10.78639711,59.14030180,59.14030180,26.29837473
3718,ThSnI6,2.0557999999999996,7.82364584,7.82364584,14.21970000,90.00000000,90.00000000,119.99999864
3719,K3BiSe3,2.0675,9.96261800,9.96261800,9.96261800,90.00000000,90.00000000,90.00000000
3720,CaThBr6,2.0535,4.17980700,9.22087600,13.80782300,90.00000000,90.00000000,90.00000000
3721,Cd(W3Br7)2,2.0591,13.70908200,13.70908200,13.70908200,90.00000000,90.00000000,90.00000000
3722,PI2,2.0584000000000002,5.20430300,7.56627647,7.73994394,80.20380499,77.94522362,73.53076420
3723,MgInBr3,2.0595999999999997,4.01046200,9.64231200,15.65899800,90.00000000,90.00000000,90.00000000
3724,Sn2OF5,2.0824000000000003,5.78034926,5.78034926,8.48248454,68.67476920,68.67476920,71.87757423
3725,Na4SnS4,2.0781,7.92937100,7.92937100,7.00601600,90.00000000,90.00000000,90.00000000
3726,GdBO3,2.0530999999999997,6.12926541,6.12926541,6.12926615,62.98774565,62.98774565,62.98775685
3727,Bi2W2O9,2.0546,5.44997700,5.47846000,24.59469400,90.00000000,90.00000000,90.00000000
3728,NbSeCl9,2.0713,19.74334300,12.57725400,13.01837111,61.12923625,90.00000000,90.00000000
3729,U(IO4)2,2.0497999999999994,16.63134300,4.26592800,5.79884304,64.33257297,90.00000000,90.00000000
3730,H4C7O,2.0704000000000002,4.27282400,8.04544400,16.03313424,75.20562235,90.00000000,90.00000000
3731,Na3FeO3,2.0753,12.76013600,5.81545200,5.87363761,65.05208824,90.00000000,90.00000000
3732,KBiO2,2.0739,5.70647573,5.70647573,6.08178429,66.52888981,66.52888981,91.98221996
3733,P2Pb8O13,2.0702,7.56432194,7.56432194,14.69033948,84.10290676,84.10290676,87.67348802
3734,As2Pb8O13,2.062,7.70319265,7.70319265,14.97911673,84.36470731,84.36470731,87.84881779
3735,Lu2S3,2.0776000000000003,13.52555028,13.52555028,13.52555028,144.80401890,144.80401890,50.62667703
3736,AuCl,2.0772,6.72464296,6.72464296,6.72464296,114.88467506,114.88467506,99.11482896
3737,Ca(NdS2)2,2.0614999999999997,7.43120282,7.43120282,7.43120282,109.64327397,109.64327397,109.12765926
3738,TaBi3O7,2.0597000000000003,3.76927900,3.92543488,12.88223313,81.59719627,81.66709819,61.92589977
3739,TiO2,2.0625,5.56641437,5.56641437,5.56641437,140.05412510,140.05412510,57.77112661
3740,YInO3,2.0824999999999996,6.36381349,6.36381349,12.38968600,90.00000000,90.00000000,119.99999470
3741,Cs2Na3InO4,2.0654000000000003,10.35980900,6.44599200,12.62575273,68.88487024,90.00000000,90.00000000
3742,Na2As4O11,2.0736,6.26356508,6.26356508,11.77640487,80.35957534,80.35957534,84.89730554
3743,AuBr,2.058,4.37978000,4.37978000,13.29740500,90.00000000,90.00000000,90.00000000
3744,Co3Ag2(P2O7)2,2.0647,5.40577600,6.43835145,16.77437159,93.91942587,98.89961103,106.98578330
3745,Cs2PdC2,2.0749,5.73726454,5.73726454,5.31723900,90.00000000,90.00000000,120.00000627
3746,LiFeAsO4,2.0800000000000005,4.95309109,6.16802205,10.73339214,90.00725368,90.01751252,89.98674798
3747,TlPPbS4,2.0807,6.66462400,8.94671000,12.52310700,90.00000000,90.00000000,90.00000000
3748,Ta2MnO6,2.0785,5.13878200,5.87441300,14.59484800,90.00000000,90.00000000,90.00000000
3749,ZrI4,2.0534,8.65009000,8.72100104,27.59240694,89.58237972,85.27414663,87.45202448
3750,Rb4Hf3S14,2.0534,11.81057008,11.81057008,13.84202337,68.76953202,68.76953202,41.71635261
3751,Cs3GaSe3,2.0789,14.07486400,8.70985000,11.39775764,53.31545077,90.00000000,90.00000000
3752,AsS,2.0502000000000002,7.27688703,7.27688703,9.54793725,80.92679361,80.92679361,85.03085400
3753,ZnS,2.072,22.15738029,22.15738029,22.15738081,9.99203003,9.99203003,9.99203146
3754,Na2UO4,2.0783,6.03367688,6.03367688,3.50104700,90.00000000,90.00000000,111.83491669
3755,Nb2Cd2O7,2.0819,7.46830909,7.46830909,7.46830909,60.00000000,60.00000000,60.00000000
3756,BaCo2(PO4)2,2.0599,4.76793200,4.87179358,8.51757218,90.40854108,106.11460837,119.22424643
3757,K4CO4,2.0527,6.11228834,6.11228834,5.67910082,67.55580268,67.55580268,55.65219367
3758,NaMnF4,2.0525,5.01737700,5.85351200,5.90836563,71.32819040,90.00000000,90.00000000
3759,K9Bi(PS4)4,2.0563000000000002,9.09294000,9.79623500,18.60766700,90.00000000,90.00000000,90.00000000
3760,SrTa2Bi2O9,2.0650999999999997,12.88926011,12.88926011,12.88926011,162.43201052,162.43201052,24.94420584
3761,MoP2PbO8,2.0835999999999997,10.23213934,10.23213934,6.66840885,81.70331250,81.70331250,90.42435725
3762,KAu(NO3)4,2.0492,7.34531200,8.66038500,10.38908718,59.34359102,90.00000000,90.00000000
3763,ZnS,2.0653,19.01215773,19.01215773,19.01215776,11.64440677,11.64440677,11.64440657
3764,ZnS,2.064,12.78076139,12.78076139,12.78076197,17.31869308,17.31869308,17.31869410
3765,ZnS,2.0614999999999997,9.70807860,9.70807860,9.70807915,22.88968179,22.88968179,22.88967864
3766,Na4UCr3O14,2.0483000000000002,7.33493000,8.64439833,11.63134866,80.07166195,78.74312190,69.08004334
3767,SrFe2(P2O7)2,2.0754,4.86991536,7.20110168,7.97912005,89.64431267,87.40550644,72.95011092
3768,Cs2K2TeO5,2.0494000000000003,9.36162300,9.36162300,9.71189800,90.00000000,90.00000000,90.00000000
3769,ZnS,2.0639000000000003,25.28356825,25.28356825,25.28356845,8.74246984,8.74246984,8.74246778
3770,TlBi(PS3)2,2.0483,7.58625200,6.77425900,10.02260351,88.53916173,90.00000000,90.00000000
3771,Cd2BiAsO6,2.0633000000000004,7.52959588,7.52959588,5.52824700,90.00000000,90.00000000,108.13012967
3772,S,2.0748999999999995,11.85470283,11.85470283,9.65966841,78.83428965,78.83428965,50.26201398
3773,BaPr2Ti3O10,2.0599999999999996,14.46537249,14.46537249,7.70464200,90.00000000,90.00000000,164.36836263
3774,BiS4N3Cl4,2.0533,7.62405600,9.63878112,9.90876012,113.82389436,103.22719146,85.31543170
3775,LiLa5Ti8O24,2.0496,7.79476400,7.82501100,7.87643123,89.75804771,90.00000000,90.00000000
3776,SbAs3(Se2F3)2,2.0726,9.97960300,6.45269700,10.77324510,87.64149053,90.00000000,90.00000000
3777,PbS,2.0794,4.24666494,4.24666494,32.82622700,90.00000000,90.00000000,90.02615936
3778,K2Cd(AuS)4,2.0601,9.87541968,9.87541968,9.87541968,137.68232384,113.56446310,81.99821076
3779,BaTiO3,2.0811,5.79788156,5.79788156,14.14208100,90.00000000,90.00000000,119.51118447
3780,TaTl2AgS4,2.0548,10.62039000,8.12681800,13.00487454,52.33039318,90.00000000,90.00000000
3781,Sb2Te3MoC4(OF3)4,2.0766,8.58574400,14.86645300,15.60340500,90.00000000,90.00000000,90.00000000
3782,HgTe2C2(NF8)2,2.0748,9.97804100,11.02366000,13.09967800,90.00000000,90.00000000,90.00000000
3783,Ba4Ti2PtO10,2.0587999999999997,7.39624866,7.39624866,13.31864400,90.00000000,90.00000000,133.41379662
3784,KNa2AuO2,2.0644,3.98619500,5.49300500,10.29696300,90.00000000,90.00000000,90.00000000
3785,K2S,2.0612,5.30270368,5.30270368,7.29388300,90.00000000,90.00000000,119.99999597
3786,BaSr4U3O14,2.0717,8.11768321,8.11768321,11.12374700,90.00000000,90.00000000,90.07846633
3787,KCrF3,2.0825000000000005,6.05512840,6.05512840,6.05512840,121.02645781,121.02645781,88.23113133
3788,ZnS,2.0776,3.84827756,3.84827756,6.31745200,90.00000000,90.00000000,119.99999242
3789,Na2U2Si(O4F)2,2.07,10.53454832,10.53454832,10.53454832,141.02614173,141.02614173,56.29851241
3790,TeH12AuC4S3N,2.0642,19.45886700,6.79445100,9.40777750,79.11720956,90.00000000,90.00000000
3791,TiS4(NCl)4,2.0545,8.73813400,11.39658800,15.10215225,52.62775790,90.00000000,90.00000000
3792,V3SiP5O19,2.0627,14.58948420,14.58948420,7.72138400,90.00000000,90.00000000,120.00000089
3793,BaTa2O6,2.0624000000000002,21.43814373,21.43814373,3.97948100,90.00000000,90.00000000,119.99999916
3794,PbS,2.0532,4.25427879,4.25427879,22.43860284,86.15215924,86.15215924,90.17183620
3795,Ba3(PS4)2,2.0716,6.73312363,6.73312363,8.78790300,90.00000000,90.00000000,119.99999633
3796,Cs2Sn(AuS2)2,2.051,14.84152908,13.21945398,8.06981900,84.72777093,62.49105598,32.78117309
3797,V2P2PbO10,2.0502000000000002,8.78720100,5.28343900,17.05588910,88.94339450,90.00000000,90.00000000
3798,CsUVO6,2.0619,8.49540600,7.83956500,10.62829446,73.92977387,90.00000000,90.00000000
3799,Sr3Li4(GeN3)2,2.0572000000000004,5.93188610,5.93188610,6.36369640,89.32241500,89.32241500,117.00545955
3800,CdI2,2.0518,4.33139020,4.33139020,44.48475400,90.00000000,90.00000000,120.00000299
3801,SiC,2.0641,3.09414014,3.09414014,40.48348900,90.00000000,90.00000000,120.00000291
3802,Cs2HgI4,2.066,8.65715700,8.12100500,11.39409427,68.46822563,90.00000000,90.00000000
3803,Mn2Fe(CN)6,2.0532,6.03665871,6.03665871,6.42802600,90.00000000,90.00000000,120.00000776
3804,MgH2,2.0719999999999996,4.75708100,4.90515800,9.31937200,90.00000000,90.00000000,90.00000000
3805,In5Br7,2.0779,13.46400967,13.46400967,19.86303560,79.85414186,79.85414186,89.98971498
3806,La5(SiN3)3,2.057499999999999,7.84741796,7.84741796,16.08170000,90.00000000,90.00000000,93.78859771
3807,RbCu2I3,2.0766,5.40032700,11.24407700,13.89869800,90.00000000,90.00000000,90.00000000
3808,SiC,2.067400000000001,3.09439999,3.09439999,48.09961700,90.00000000,90.00000000,119.99999982
3809,Co(IO3)2,2.0574999999999997,5.33842030,10.95909415,10.91136929,61.04482901,90.01605518,90.00252895
3810,Cs4U2V2O13,2.0504,7.38924900,8.56287900,13.73813400,90.00000000,90.00000000,90.00000000
3811,Rb5Th(PS4)3,2.0725000000000002,10.18507800,13.57520900,18.65016795,78.39450221,90.00000000,90.00000000
3812,CsCa2Nb3O10,2.0693,7.82522500,7.83452300,31.03140600,90.00000000,90.00000000,90.00000000
3813,K3Ta2Ag3Se8,2.0765,13.23587359,13.23587359,14.76470499,61.51662572,61.51662572,26.97500519
3814,HgH16(Br3N2)2,2.0771,9.30946200,9.04224500,12.83304428,46.00110866,90.00000000,90.00000000
3815,HgTe(H2O3)2,2.0783,6.17505800,8.43556200,11.02382700,90.00000000,90.00000000,90.00000000
3816,Cs4CO4,2.0735,6.24018100,6.24018100,6.24018100,90.00000000,90.00000000,90.00000000
3817,Na2La2Ti3O10,2.0829999999999997,14.69641334,14.69641334,14.69641334,164.86303529,164.86303529,21.47009583
3818,FeC3SeO3,2.0817,6.65361700,7.76099291,11.90140408,84.13161286,75.02128095,77.45161000
3819,TlCr4BiO14,2.0799,17.26948700,8.40394100,8.77749089,88.34604692,90.00000000,90.00000000
3820,SiC,2.054499999999999,27.83553980,27.83553980,27.83554037,6.38025180,6.38025180,6.38025128
3821,Zn(HO)2,2.0603,3.32214800,8.15072904,12.42560871,107.52720566,97.37200570,89.99417252
3822,TeHO3,2.0789000000000004,4.97552300,8.42996000,11.71309200,90.00000000,90.00000000,90.00000000
3823,V2Zn2O7,2.0493,5.42301443,5.42301443,5.07936227,81.79563751,81.79563751,106.39637457
3824,Hg2ClO,2.0573,7.09091200,7.24682789,9.82463839,105.62755615,89.13267221,118.90578674
3825,Ag2WO4,2.0482000000000005,5.95045400,11.16405300,12.30450500,90.00000000,90.00000000,90.00000000
3826,In5Br7,2.0735,13.39283301,13.39283301,19.67025407,80.11346490,80.11346490,89.94633529
3827,Pb4SeBr6,2.0595,9.74794174,9.74794174,9.74794174,154.06730153,117.09882165,69.21667078
3828,Te3As2(SF4)3,2.071,12.04556900,8.54420500,17.61056003,61.97561171,90.00000000,90.00000000
3829,Ag2Pb8Cl4O7,2.0734,18.41375500,8.26254200,15.12845326,57.11030764,90.00000000,90.00000000
3830,Na2UO4,2.0549,5.92911100,5.97754500,12.20275900,90.00000000,90.00000000,90.00000000
3831,Ge3N4,2.0807,8.27855977,8.27855977,5.98956200,90.00000000,90.00000000,119.99999815
3832,P,2.0531,5.56743353,5.56743353,5.56743353,60.00000000,60.00000000,60.00000000
3833,Dy3TaO7,2.0598000000000005,5.35681700,7.59418600,8.14866654,62.29025402,90.00000000,90.00000000
3834,CsHgCl3,2.0745999999999998,6.43033600,6.43033600,8.83519200,90.00000000,90.00000000,90.00000000
3835,Hf2N2O,2.0539999999999994,8.71159200,8.73367878,8.73444217,109.59675355,109.43012881,109.25941461
3836,Dy2PbS4,2.0704000000000002,7.39063969,7.39063969,7.39063969,109.39468981,109.39468981,109.62439094
3837,Yb(NdS2)2,2.0483999999999996,7.41414891,7.41414891,7.41414891,109.56886453,109.56886453,109.27610886
3838,Sm2PbS4,2.0712,7.46772689,7.46772689,7.46772689,109.40221712,109.40221712,109.60931599
3839,Pr2PbS4,2.0730000000000004,7.57115249,7.57115249,7.57115249,109.41294749,109.41294749,109.58782989
3840,Tb2PbS4,2.0811,7.39358491,7.39358491,7.39358491,109.33797329,109.33797329,109.73804527
3841,Yb(SmS2)2,2.0582,7.31640315,7.31640315,7.31640315,109.51664421,109.51664421,109.38041163
3842,Sc3NbO7,2.0595999999999997,5.10590000,7.18714700,7.76296435,62.61165894,90.00000000,90.00000000
3843,Lu3NbO7,2.0609,5.25385600,7.39402200,8.02509173,62.68585639,90.00000000,90.00000000
3844,TaOF3,2.0816,4.06407200,4.89662957,18.22848273,90.82835344,89.89660436,114.09773108
3845,Th10N9F13,2.0654000000000003,4.06280000,4.06280000,29.44533500,90.00000000,90.00000000,90.00000000
3846,SrLa9MgGa9O29,2.0728999999999997,5.55738522,5.58375876,27.84977571,60.40292545,60.24173885,60.16659503
3847,UPb(SeO4)2,2.0683,5.88973400,11.47505700,12.19299700,90.00000000,90.00000000,90.00000000
3848,CdHg3C6S6(N3Cl)2,2.0623,21.47816215,21.47816215,21.47816205,30.73005636,30.73005636,30.73005476
3849,C2F,2.0819,12.44841546,12.44841546,12.44841516,113.42186359,113.42186359,113.42186228
3850,Ba3LaZnReWO12,2.0568000000000004,9.82892874,9.82892874,9.82892891,33.95260673,33.95260673,33.95260744
3851,Li10Ge(PS6)2,2.0551,8.78764600,8.78764600,12.65754600,90.00000000,90.00000000,90.00000000
3852,Bi28Mo2O47,2.0831000000000004,8.87172000,8.88826659,17.27511598,90.11899246,90.16029465,90.06978042
3853,Cr2C13SN3(O2F)5,2.0572,6.46808300,12.10003377,14.39444739,92.45839552,96.39665280,99.67160955
3854,KMnO4,2.0563,6.16818300,7.48005200,9.03208400,90.00000000,90.00000000,90.00000000
3855,LiVP2O7,2.0707000000000004,8.10965700,7.18935200,9.61142722,69.18726319,90.00000000,90.00000000
3856,CrO3,2.0538000000000003,4.91040250,4.91040250,5.78753000,90.00000000,90.00000000,117.70433022
3857,Rb14Na3Al17Si31O96,2.0598,17.60675400,17.69619532,17.86837826,60.48014613,60.58391090,60.75125401
3858,Hg4HN3O10,2.057,11.41154788,11.41154788,11.62633500,90.00000000,90.00000000,129.74958515
3859,Fe3PH6PbSO14,2.0555000000000003,7.10989962,7.10989962,7.10989908,62.58320330,62.58320330,62.58319927
3860,InH8C8N4Cl7,2.062,8.25586100,11.19050400,13.55317900,90.00000000,90.00000000,90.00000000
3861,K6W2N4O3,2.0578,9.66904200,6.83974100,11.75756398,56.76867799,90.00000000,90.00000000
3862,LiVF4,2.0645,5.48008800,5.56466158,6.03658933,90.15586381,116.68423180,91.79104555