,pretty_formula,bandgap,cell_length_a,cell_lentgh_b,cell_lentgh_c,cell_angle_alpha,cell_angle_beta,cell_angle_gamma
9026,K2NdCuCl6,2.4588,7.44091153,7.44091153,7.44091153,60.00000000,60.00000000,60.00000000
9027,Rb2NdCuCl6,2.4608000000000003,7.48607161,7.48607161,7.48607161,60.00000000,60.00000000,60.00000000
9028,Cs2TmCuCl6,2.4663000000000004,7.39825885,7.39825885,7.39825885,60.00000000,60.00000000,60.00000000
9029,Cs2KSbI6,2.4707,9.07325056,9.07325056,9.07325056,60.00000000,60.00000000,60.00000000
9030,Cs2ErCuCl6,2.4799999999999995,7.42327063,7.42327063,7.42327063,60.00000000,60.00000000,60.00000000
9031,Cs3AsI6,2.4866,9.18756286,9.18756286,9.18756286,60.00000000,60.00000000,60.00000000
9032,Cs3ScI6,2.4632,9.22944055,9.22944055,9.22944055,60.00000000,60.00000000,60.00000000
9033,Cs2AlAgCl6,2.4879,7.33913624,7.33913624,7.33913624,60.00000000,60.00000000,60.00000000
9034,Rb2AlAgCl6,2.4798,7.23891941,7.23891941,7.23891941,60.00000000,60.00000000,60.00000000
9035,K4Ca(WO4)3,2.4664,7.10699764,7.10699764,7.10699764,109.47122063,109.47122063,109.47122063
9036,Li6Zn3(PS4)4,2.4515000000000002,9.33423900,11.59949806,23.15109618,90.06921738,90.04544343,90.00571995
9037,Li6Zn3(PS4)4,2.4574,9.30843900,11.58476810,23.13710976,89.89211094,89.91121261,89.96546852
9038,Ca3Si3(WO6)2,2.4811999999999994,10.80496075,10.80496075,10.80496075,109.47122063,109.47122063,109.47122063
9039,Ta2FeO6,2.4812999999999996,9.32685900,4.82003700,14.43860241,89.96686920,90.00000000,90.00000000
9040,LiMnH4(SO5)2,2.4863,5.63816800,7.41115761,10.43564623,101.52589902,97.88782411,111.93903185
9041,Li5FeO3F,2.4707,6.64050000,5.47177100,5.48276338,86.11742659,90.00000000,90.00000000
9042,Cs4SiO4,2.4556000000000004,19.42426500,6.99277000,7.09284418,66.90060627,90.00000000,90.00000000
9043,Tl2Sn(GeO3)3,2.4616,12.35704845,12.35704845,10.77717900,90.00000000,90.00000000,120.00000239
9044,NaBeSi3O8,2.4556999999999993,7.76049876,7.76049876,13.11503349,78.19670249,78.19670249,66.25106079
9045,Cs2HgBr4,2.4680999999999997,7.94222200,10.92259000,16.67023700,61.09822102,90.00000000,90.00000000
9046,Na2In2GeS6,2.4907000000000004,7.36257953,7.36257953,12.46312619,74.39542879,74.39542879,65.38660390
9047,SrCdAs2O7,2.4741,5.89847500,7.28390159,7.62675375,101.16600955,90.36449261,98.71689502
9048,Gd3SbO7,2.4593,6.55878754,6.55878754,7.61237600,90.00000000,90.00000000,109.62501598
9049,LiCr(WO4)2,2.4684999999999997,5.02186603,7.42244319,7.42244947,101.52965565,90.58044470,90.58041194
9050,Hg2SBr4N2O3,2.4798,7.28917100,10.39060100,11.31073655,83.38940245,90.00000000,90.00000000
9051,Na2VNiF7,2.4804999999999997,7.41857699,7.41857699,7.41857699,120.73947924,118.99525683,90.23648983
9052,HgTe2(OF5)2,2.4806,10.74006715,10.74006715,6.03262703,83.19779998,83.19779998,50.12687582
9053,Fe3Sb2(BrO)4,2.4735,6.42118901,7.26733326,14.93291201,90.00440106,90.00069711,63.77598134
9054,Tl2PO3,2.4685000000000006,5.51055800,12.70165400,13.32945400,90.00000000,90.00000000,90.00000000
9055,BaMnPClO4F,2.4904,8.71032100,7.34611300,9.06037950,72.49412290,90.00000000,90.00000000
9056,NbTlV2O8,2.4614000000000003,5.70382200,9.19728000,15.31273200,90.00000000,90.00000000,90.00000000
9057,Te2Xe(O2F5)2,2.4914,21.30488700,5.42084900,11.06906062,73.26817784,90.00000000,90.00000000
9058,Sr5(IO6)2,2.4845,20.02764501,20.02764501,20.02764578,29.41711101,29.41711101,29.41711307
9059,Cs2UAs2O9,2.4834,6.48138300,13.20276900,13.45183400,90.00000000,90.00000000,90.00000000
9060,CoP2H10(NO4)2,2.4753,10.54180800,6.47561600,12.75431274,76.10041919,90.00000000,90.00000000
9061,B2Mo(PbO2)6,2.4584,9.90837897,9.90837897,11.92932600,90.00000000,90.00000000,141.93134546
9062,La2Zn(SeO)2,2.4524999999999997,14.62648848,14.62648848,5.77696500,90.00000000,90.00000000,104.10740032
9063,Si(PbO2)2,2.4651,7.30053001,7.30053001,19.77426803,83.81169678,83.81169678,64.50874575
9064,Bi2O3,2.4516999999999998,7.38006900,9.43773700,10.32733927,76.67909789,90.00000000,90.00000000
9065,Ag2Sn(S2O7)3,2.4602000000000004,10.61342223,16.99067983,16.99069781,119.99999140,90.00004955,90.00002727
9066,H3Os4C12IO12,2.4697999999999998,9.74503972,9.74503972,17.97643978,64.15666800,64.15666800,49.84195879
9067,Cs2V5H5O16,2.4825999999999997,14.42927800,10.28245600,11.80445492,72.13948650,90.00000000,90.00000000
9068,K3Fe(CO2)6,2.4662,13.96027343,13.96027343,13.96027343,90.00000000,90.00000000,90.00000000
9069,GeSb2H16C4(S3N)2,2.4898999999999996,11.15541200,11.15541200,14.01427400,90.00000000,90.00000000,90.00000000
9070,Fe3Sb5(IO3)3,2.4667000000000003,8.14555100,9.09179960,12.39656360,78.95351784,85.73097272,70.49383642
9071,Ti2H2CSe4Cl16O5,2.4765,8.89928700,13.23240000,18.16539030,50.43948950,90.00000000,90.00000000
9072,AlB2P2H7O13,2.4668,10.44914899,10.44914899,7.26816973,85.23316800,85.23316800,43.99072585
9073,Rb7GdFe6(P4O17)2,2.4818,9.39366890,10.01446946,10.07915227,90.79136780,95.25031335,116.25831762
9074,Sb2H18C3(IN)9,2.4614000000000003,9.56691679,9.56691679,22.07705000,90.00000000,90.00000000,113.88885570
9075,TiSi7H42C14(ClO)2,2.4531,18.59453900,9.77357400,10.43371119,78.76858288,90.00000000,90.00000000
9076,Ca2MgV10(H8O11)4,2.4675,11.23812687,11.23812687,10.88593212,64.31526953,64.31526953,52.81729783
9077,SrFeBP2(HO5)2,2.4523,6.68054770,6.73991635,9.39288750,109.84407415,101.88956476,103.59674193
9078,BaP3NO11,2.4613,12.33884200,7.25681000,13.18949300,67.77670027,90.00000000,90.00000000
9079,Ca2As4(Xe3F14)3,2.4552000000000005,14.53452504,14.53452504,23.05222385,90.00000000,90.00000000,90.00000000
9080,Cs3HgBr5,2.484,9.62538100,11.42012600,14.53941200,90.00000000,90.00000000,90.00000000
9081,TiH19C6N3Cl2,2.4623999999999997,12.82751200,8.98808700,14.60051467,83.08202078,90.00000000,90.00000000
9082,FeC7(O2F)2,2.4885,27.63956700,6.90525400,11.01997317,54.69927706,90.00000000,90.00000000
9083,H12OsC4NO4F,2.4546,8.45215346,8.45215346,7.57164500,90.00000000,90.00000000,93.06055184
9084,AsBrKr2OF12,2.4845,14.10849900,6.01462800,15.73562427,67.74247538,90.00000000,90.00000000
9085,K2LiV5H10O19,2.4871,8.64308000,10.25403156,10.93922700,110.95532756,87.05715620,112.95602670
9086,Na2CoH4(CO2)4,2.4723,9.23774087,9.23774087,6.88911344,74.36323531,74.36323531,58.10004770
9087,Na2CoP4(H2O3)6,2.4831,11.58173700,8.10536400,9.08680403,67.59856666,90.00000000,90.00000000
9088,Na2LiV5H18O23,2.4791,8.69517900,10.64126219,12.09884066,105.48206066,101.90702928,99.25422355
9089,CdH4(C2O3)2,2.4894,12.25960600,6.49023700,8.32896569,77.53074123,90.00000000,90.00000000
9090,Fe7Sb10(Br4O9)2,2.4678,10.12084100,10.16782459,10.32828074,72.63188554,64.44405333,64.83051295
9091,Ag6Te4W3O20,2.4806000000000004,15.52412535,15.52412535,9.71240627,88.40717391,88.40717391,25.38658428
9092,TiH30C10S5(ClO3)2,2.471,9.83493100,10.72226524,12.92952875,108.92743381,96.59884822,89.94334686
9093,GeBiH8C2S4N,2.4525,7.16214700,6.92835700,10.95418298,75.12101925,90.00000000,90.00000000
9094,KNa2AlH6,2.4608000000000003,5.66337500,5.58445000,7.98758354,89.93889948,90.00000000,90.00000000
9095,ZnWO4,2.4896,6.49709090,6.49709090,6.49709090,134.49920191,134.49920191,66.30933045
9096,K2B(CN)3,2.4623,8.77531281,8.29190022,7.06917849,69.15177715,62.01194787,48.83627498
9097,Ba2TaTlO6,2.4628,6.03139316,6.03139316,6.03139316,60.00000000,60.00000000,60.00000000
9098,Tl2SCl2,2.4631999999999996,6.47313100,6.47313100,12.67323000,90.00000000,90.00000000,90.00000000
9099,PrSBr,2.4735999999999994,6.96305900,7.14042100,13.92027000,90.00000000,90.00000000,90.00000000
9100,NaAs4IO6,2.4551000000000003,5.35787041,5.35787041,9.19891400,90.00000000,90.00000000,120.00000502
9101,LiBi(WO4)2,2.4699999999999998,5.99695000,5.15280400,11.20738226,66.00037515,90.00000000,90.00000000
9102,MgU2P2(H10O11)2,2.4764999999999997,19.98267500,7.01949200,9.86110334,45.45259174,90.00000000,90.00000000
9103,GdCrGeO5,2.4536000000000002,5.84467300,7.51134400,8.54002700,90.00000000,90.00000000,90.00000000
9104,Nd2(N4O9)3,2.478,13.41544533,13.41544533,13.41544533,90.00000000,90.00000000,90.00000000
9105,InH4S2NO8,2.4585999999999997,10.64915100,9.25664100,10.20100518,83.04357574,90.00000000,90.00000000
9106,CSN2,2.4755,10.69013700,3.94790000,6.54284353,72.69633366,90.00000000,90.00000000
9107,C8Cl4O3,2.4869,5.94215000,12.88140000,18.40119863,49.03548998,90.00000000,90.00000000
9108,BaFeP(O2F)2,2.4586,12.97759200,5.28907900,8.05890233,62.11931900,90.00000000,90.00000000
9109,Bi17As5Pb5O43,2.4892,11.87380129,11.87380129,11.93835050,61.91787356,61.91787356,92.95047627
9110,Y4Ti2Nb2O15,2.4793999999999996,7.29192297,7.29192297,7.29192297,120.51523144,119.51589980,89.97522143
9111,Y6Al2SiS14,2.4537999999999993,9.71160506,9.71160506,5.96973600,90.00000000,90.00000000,120.00000722
9112,V2Cd3O8,2.4744,5.42020100,7.06450200,10.05070100,90.00000000,90.00000000,90.00000000
9113,ThV2PbO8,2.4818000000000002,7.04286395,7.04286395,7.04286395,136.10480199,136.10480199,63.81835127
9114,Sr3CaS4,2.4565,7.32662162,7.32662162,4.23040200,90.00000000,90.00000000,109.45509014
9115,Sr2HfTiO6,2.4903999999999997,5.70639957,5.70639957,5.70974939,59.98752432,59.98752432,60.04195617
9116,Sr10Mg5Mo2(WO10)3,2.4557999999999995,5.65015700,5.66142035,20.50650229,97.68573479,97.90462078,89.88529543
9117,RbLiZnS2,2.4519,7.44615107,7.44615107,7.44615107,148.63508408,148.63508408,44.94872203
9118,RbSbMoO6,2.4779,7.35592708,7.35592708,7.35592708,120.83907800,117.79740753,91.20472075
9119,RbLa2TaTi2O10,2.4813,3.87766032,3.87766032,15.49236371,89.61323644,89.61323644,90.06224986
9120,Nd2ScNbO7,2.4637999999999995,7.52957770,7.52957770,7.52957770,120.51102072,119.55714912,89.94296038
9121,NaTiSn(PO4)3,2.4867,8.99960114,8.99960114,8.99960121,57.66898882,57.66898882,57.66898780
9122,NaDy3Ti2(SbO7)2,2.4685999999999995,7.26054329,7.26054329,7.21034199,60.67994720,60.67994720,60.88331198
9123,Na3NdTi2Nb2O12,2.4826999999999995,5.51282600,5.60183153,7.84597433,89.89688292,89.95286190,89.83394747
9124,Na2TiTeO6,2.4639000000000006,6.15926259,6.15926259,6.15926246,50.87330406,50.87330406,50.87330848
9125,Na3GdTi2Nb2O12,2.4878,5.46546900,5.58773897,7.79773341,89.89307234,89.97264433,89.50804549
9126,Mn4H2C8O17,2.4535,7.18983800,9.13243500,11.94568300,90.00000000,90.00000000,90.00000000
9127,MgTiNb2(PbO3)4,2.4839,5.77901000,5.87667600,8.03807600,90.00000000,90.00000000,90.00000000
9128,LiMgCoF6,2.483,4.66047200,4.66047200,9.21835400,90.00000000,90.00000000,90.00000000
9129,LiTiAlO4,2.4893,5.85112980,5.85112980,5.85112980,120.93676403,119.10738706,89.96907419
9130,LiMoP2WO11,2.4691,5.26311461,5.26311461,7.88027834,80.25559714,80.25559714,75.91777181
9131,LaPaO4,2.4749999999999996,3.87937300,3.87937300,5.65270300,90.00000000,90.00000000,90.00000000
9132,LaTi6Bi7O24,2.4712999999999994,5.47316900,5.52127527,16.91672847,99.36612577,90.04265839,90.66891344
9133,KNaTi4(PO4)6,2.4869000000000003,9.07649628,9.07649628,9.07649672,56.29527250,56.29527250,56.29527410
9134,Li5CrFe4(P2O7)5,2.4695,4.88741771,7.01490655,41.04140217,90.03579504,90.01856901,109.11834730
9135,KCr12Si8BrO28,2.4532000000000003,9.97571043,9.97571043,9.97571043,115.93856357,115.93856357,97.19148020
9136,KTa5Pb2O15,2.4728999999999997,3.97201700,12.73049200,12.76108200,90.00000000,90.00000000,90.00000000
9137,K10Zn4Sn4S17,2.4829000000000003,10.09344206,10.09344206,10.09344196,90.45121602,90.45121602,90.45121355
9138,Gd5Si2BO13,2.4873,6.92214100,9.34855300,9.37893451,60.22649634,90.00000000,90.00000000
9139,Dy6Al2SiS14,2.4913,9.68633459,9.68633459,5.94915900,90.00000000,90.00000000,120.00000406
9140,CsFeNiF6,2.4516,7.42476866,7.42476866,7.42476866,120.40291129,119.43235012,90.14477709
9141,CsTi3P5O19,2.4766,10.12597824,10.12597824,8.91855016,84.25067936,84.25067936,112.76860912
9142,CrBiTeO6,2.4864,5.25104104,9.09576649,10.04189801,89.99534257,90.00268995,90.00760134
9143,Cd4Mo3WO16,2.4769,5.24011500,5.24011500,11.50623800,90.00000000,90.00000000,90.00000000
9144,Cs3Rb5Mo12(P3O17)4,2.4576,9.70480900,11.00089559,15.78719163,70.95214788,89.98804160,89.98119810
9145,Ba4LaTiNb3O15,2.4697,5.81119655,5.81119655,11.84676000,90.00000000,90.00000000,120.00000629
9146,Ba3ZrTa4O15,2.4682000000000004,12.82905500,12.82905500,4.06111100,90.00000000,90.00000000,90.00000000
9147,Ba4SrRe3ClO15,2.4621,11.00376746,11.00376746,7.89237200,90.00000000,90.00000000,119.99999674
9148,Ba10MgMn3V8(Cl3O7)4,2.4513,5.82982600,13.57823000,16.06111466,66.38328148,90.00000000,90.00000000
9149,Al8Zn3CdS16,2.4843,12.43778616,12.43778616,12.43778658,33.58326536,33.58326536,33.58326739
9150,La2MgSe4,2.4772,6.97360800,8.74563200,14.89608900,90.00000000,90.00000000,90.00000000
9151,Lu2MgS4,2.4676,7.08678812,7.08678812,7.08678812,110.32155222,110.32155222,107.78362395
9152,CaZn(GeO3)2,2.4902999999999995,6.88258194,6.88258194,5.51303472,78.43994261,78.43994261,82.89265486
9153,CaO,2.4659000000000004,12.08329920,11.73812587,11.81033359,87.31984067,86.93998073,98.08408244
9154,Sc3Si6N11,2.461900000000001,9.77288989,9.77288989,4.85348155,90.00000000,90.00000000,90.00000000
9155,Zn3WN4,2.4556000000000004,6.58537230,5.69963455,5.37817942,90.00000000,90.00000000,90.00000000
9156,SiWO4,2.458,10.02589469,10.02589469,10.02589469,109.47122063,109.47122063,109.47122063
9157,SiSe2,2.468,6.99919313,17.53294281,6.35510216,90.00000000,104.12266529,90.00000000
9158,Zn3Si4(BiO7)2,2.4726,9.49637824,9.49637824,10.55283865,59.73588143,59.73588143,53.04917691
9159,Ba2AlV2F11,2.4568999999999996,7.48095605,7.48095605,14.56996600,90.00000000,90.00000000,120.00000045
9160,Rb9Na2Al11Si13O48,2.4603,12.61612914,12.23334563,12.22318463,90.66905654,90.15708439,89.16844108
9161,Mg3Cr2(Si2O7)2,2.4617999999999998,9.18276890,9.18276890,9.78868361,59.50484206,59.50484206,48.79458042
9162,YFe(WO4)2,2.4550000000000005,5.96025805,6.01881773,9.80778487,101.32490947,77.99021670,109.17085912
9163,NaCd4(PO4)3,2.4792,6.78568400,10.30602900,15.29403700,90.00000000,90.00000000,90.00000000
9164,Na2MnCrF7,2.4625,7.55120357,7.55120357,18.49240000,90.00000000,90.00000000,119.99999626
9165,Li6Ca12Mo4N16O3,2.4805,11.37071089,11.37071089,11.37071089,109.47122061,109.47122061,109.47122065
9166,MnZnP2O7,2.4681,5.62123908,12.47184638,7.46616284,83.15993929,85.78159854,97.37301672
9167,Mg2Nb2FeO8,2.4639,5.21234893,6.04708014,10.10683929,107.40516010,89.13813547,90.00683256
9168,Ba2NaNb5O15,2.4751000000000003,12.64543700,12.64543700,4.14390300,90.00000000,90.00000000,90.00000000
9169,Mn6AgP7O24,2.4581,5.43810344,6.65636013,27.12596288,90.00000000,90.00000000,107.45384501
9170,Li2MnP2O7,2.4711,8.19365589,8.19360132,9.92420780,93.43062820,86.57031641,74.52204602
9171,RbMoAsO6,2.4553,10.60014331,10.05071143,8.68008911,68.48242634,61.89491690,49.62265676
9172,PrPtF7,2.4542,5.70198200,9.24269400,12.37045711,61.86434944,90.00000000,90.00000000
9173,Sr2TaN3,2.4836,6.43657143,6.43657143,12.67590997,89.00683459,89.00683459,123.68223764
9174,Rb3Sm(PS4)2,2.4571,6.89574300,9.89442800,11.82387840,89.32545826,90.00000000,90.00000000
9175,Ta2Mn4O9,2.4878,5.38109900,5.38113769,14.53101300,90.00012736,89.99978706,120.00083998
9176,RbFeP2O7,2.4814000000000003,10.15807000,7.62999500,8.41297227,74.09137695,90.00000000,90.00000000
9177,BaVPO6,2.4733,10.14274300,5.83312300,8.79019532,89.09301420,90.00000000,90.00000000
9178,NaFeP2O7,2.4732000000000003,8.04038600,7.42402100,9.69185017,68.28362271,90.00000000,90.00000000
9179,Co2Te3O8,2.4778000000000002,6.95368231,6.95368231,11.67665962,81.66605012,81.66605012,44.19276114
9180,Li2VSiO5,2.4770999999999996,4.54033200,9.08670398,9.08596859,89.99998216,90.00168378,90.00046530
9181,K2W2O7,2.4572000000000003,3.88861619,6.19759383,14.09684565,90.00000000,90.00000000,90.06391972
9182,Mg6MnO8,2.4797999999999996,8.47721909,8.47721892,10.38242988,114.09484186,65.90515767,90.00000438
9183,Ti4Mn(PO4)6,2.4899,8.68685012,8.68685012,8.68685075,59.71699504,59.71699504,59.71699021
9184,Li3Fe2(PO4)3,2.4665999999999997,9.03607471,9.03607471,9.03607440,55.56637603,55.56637603,55.56637655
9185,TiCdO3,2.4636,5.40074700,5.52300900,7.69216300,90.00000000,90.00000000,90.00000000
9186,NaNdTiO4,2.4555,3.75920900,3.75920900,13.09858400,90.00000000,90.00000000,90.00000000
9187,BaLa2In2O7,2.4620000000000006,6.00390100,6.00390100,20.97179400,90.00000000,90.00000000,90.00000000
9188,Na2W2O7,2.4570999999999996,3.87853741,5.52393671,13.80581632,90.00000000,98.07490016,90.00000000
9189,Na2TiCr(PO4)3,2.472,9.87969400,9.87969400,9.87969400,90.00000000,90.00000000,90.00000000
9190,LiMnFeF6,2.475,8.88236051,8.88236051,4.81908900,90.00000000,90.00000000,120.00000383
9191,Ca2BrN,2.4599,7.25741063,7.25741063,7.25741058,29.73564410,29.73564410,29.73564125
9192,HgBr,2.4641,6.66579404,6.66579404,6.66579404,136.31053051,136.31053051,63.50061387
9193,CsSn2Br5,2.4626,10.10079438,10.10079438,10.10079438,129.49381771,129.49381771,74.21728726
9194,RbPbI3,2.4576000000000002,4.86347000,10.62593300,17.78437300,90.00000000,90.00000000,90.00000000
9195,MoCl3O,2.4827,14.27481600,6.22247800,6.25415929,87.69728263,90.00000000,90.00000000
9196,SnH8(NCl3)2,2.4884,7.21111597,7.21111597,7.21111597,60.00000000,60.00000000,60.00000000
9197,MnPH2O5,2.4602999999999997,5.17940057,8.02274460,10.12727522,68.42710570,97.02172545,107.65625576
9198,CoP2(H4O5)2,2.4663,9.99482400,5.37037300,8.70312566,56.18906364,90.00000000,90.00000000
9199,V2O5,2.4669,5.70962807,5.70962807,11.53549500,90.00000000,90.00000000,143.15093842
9200,TiO2,2.4633,5.16855488,5.16855488,5.16855498,33.70824839,33.70824839,33.70824600
9201,Li2FePCO7,2.4597,5.09404801,10.68373931,10.68358230,73.62442870,87.02213151,87.02298368
9202,Li3V2P5O16,2.4839,7.00792700,5.05024900,18.35524097,86.88099847,90.00000000,90.00000000
9203,LiCrP2O7,2.4897,6.32298200,6.34424554,6.83570504,85.40592957,66.77470710,82.23791790
9204,LiVPO5,2.4743999999999997,6.32985900,6.33051900,9.19766300,90.00000000,90.00000000,90.00000000
9205,LiV2P3O10,2.4882999999999997,8.66901400,4.65721900,9.14636515,82.52024498,90.00000000,90.00000000
9206,Li3Sn2(PO4)3,2.4807,8.90902600,8.77270500,15.61539647,57.40950034,90.00000000,90.00000000
9207,Li2Mo4O13,2.4881,8.39412047,8.76748376,11.86346480,110.95214466,94.44961563,96.32477593
9208,AgIO3,2.4582,5.89721600,7.26060500,15.51162100,90.00000000,90.00000000,90.00000000
9209,SeO3,2.4589,10.09495800,10.09495800,5.55221800,90.00000000,90.00000000,90.00000000
9210,KNaS,2.4867,4.66324700,7.84497300,8.43378500,90.00000000,90.00000000,90.00000000
9211,Sb5IO7,2.4519,6.94738620,6.94738620,12.97691900,90.00000000,90.00000000,120.00000193
9212,Na3ClO,2.4613,4.53828100,4.53828100,4.53828100,90.00000000,90.00000000,90.00000000
9213,Na4Ga2S5,2.4813,6.17845700,8.04831300,20.11294055,88.63117090,90.00000000,90.00000000
9214,Tl2AgI3,2.4859999999999998,9.14660951,9.14660951,9.14660955,72.02381728,72.02381728,72.02381624
9215,P2S3,2.4837000000000002,13.20373100,7.53594300,12.35091302,78.78224931,90.00000000,90.00000000
9216,Ti(SeO3)2,2.4592,8.44663500,4.87599100,7.00913467,68.33267019,90.00000000,90.00000000
9217,Li2B2S5,2.4672,8.62645713,8.62645713,7.00595200,90.00000000,90.00000000,135.18261818
9218,WBr2,2.4659,10.04693903,10.04693903,12.12242600,90.00000000,90.00000000,105.82210469
9219,NaNO2,2.4755,4.32301506,4.32301506,4.32301506,130.31511988,101.25835716,99.07780784
9220,Li4GeS4,2.4872,6.19493900,7.81391100,14.16110800,90.00000000,90.00000000,90.00000000
9221,Na14Al4O13,2.4679,27.36852800,6.01054800,6.01747130,60.38959638,90.00000000,90.00000000
9222,Ba3NbFe3(SiO7)2,2.4640000000000004,8.70421721,8.70421721,5.31931300,90.00000000,90.00000000,119.99999402
9223,Li3Mn2(PO4)3,2.4534,8.72346400,8.50426500,14.49407949,57.25532512,90.00000000,90.00000000
9224,LiNbWO6,2.4802,4.77535400,4.77535400,9.43008800,90.00000000,90.00000000,90.00000000
9225,Ba2SnO4,2.4906,7.35421850,7.35421850,7.35421850,146.62196183,146.62196183,47.92385741
9226,NbSbO4,2.4528,5.05535300,5.68032800,11.99543500,90.00000000,90.00000000,90.00000000
9227,Li2HN,2.4721,3.67730076,3.67730076,3.67730056,58.66948784,58.66948784,58.66949648
9228,NaDy3Ti2(SbO7)2,2.4818,7.29054000,7.30736600,12.60025845,54.95194304,90.00000000,90.00000000
9229,Na2GeS3,2.4683,15.61533900,5.87339900,6.96167774,66.36398837,90.00000000,90.00000000