,pretty_formula,bandgap,cell_length_a,cell_lentgh_b,cell_lentgh_c,cell_angle_alpha,cell_angle_beta,cell_angle_gamma
10256,CsNb(PO4)2,2.5529,5.15558259,5.15558259,8.99487310,87.17039206,87.17039206,62.09232593
10257,Rb3Ti3(PO4)5,2.5341,6.37505800,15.08531800,18.67948600,90.00000000,90.00000000,90.00000000
10258,RbFeF4,2.57,6.34827000,7.79589600,7.82953000,90.00000000,90.00000000,90.00000000
10259,Sn2PClO4,2.5695,5.07784360,5.07784360,13.79945700,90.00000000,90.00000000,123.23830760
10260,ZnBi2B2O7,2.5368,4.95292200,10.95786600,11.12700800,90.00000000,90.00000000,90.00000000
10261,S,2.5404999999999998,8.26149700,12.49819300,22.76662300,90.00000000,90.00000000,90.00000000
10262,KH3C2S2O,2.5348,6.64702700,10.71511086,13.97711986,71.62422652,82.03530508,84.19238091
10263,Na3VF6,2.5442,5.82943800,5.60017800,9.80549114,55.83275764,90.00000000,90.00000000
10264,Ba5Re3BrO15,2.5683,11.17859813,11.17859813,7.95533500,90.00000000,90.00000000,120.00000079
10265,Rb2Bi4O7,2.5426,12.49483149,12.49483149,15.81216868,86.32520062,86.32520062,63.06514496
10266,Sb5IO7,2.5763000000000003,13.12612000,6.94938300,13.59036774,60.36282604,90.00000000,90.00000000
10267,Sm3SiS6Cl,2.5585999999999998,10.37551700,12.48409000,16.23512900,90.00000000,90.00000000,90.00000000
10268,SiO2,2.5364000000000004,11.27882100,11.27882100,5.16380000,90.00000000,90.00000000,90.00000000
10269,CaAs2(XeF5)4,2.5746999999999995,15.64353400,8.55844100,8.83466573,68.31895645,90.00000000,90.00000000
10270,As2Pb(XeF6)3,2.5768,8.90984923,8.90984923,11.33864710,83.91211878,83.91211878,90.30152957
10271,BaCaVP2O9,2.5573999999999995,7.16020300,7.41048500,14.64780113,78.37814640,90.00000000,90.00000000
10272,RbInAs2O7,2.5711999999999997,7.99861500,8.86373573,10.69576725,91.16349427,89.94365113,105.73091060
10273,Pr3Si2S8I,2.5750999999999995,8.97082761,8.97082761,10.93602657,82.77270844,82.77270844,52.35291198
10274,K2Cr2HgCl2O7,2.5452,10.65299900,8.36077500,14.94041305,58.63278872,90.00000000,90.00000000
10275,Ca(BiO2)2,2.5445999999999995,10.36860652,10.36860652,12.54287908,61.91583077,61.91583077,69.63827596
10276,S,2.5396,9.55845800,14.21192100,19.74620100,90.00000000,90.00000000,90.00000000
10277,TlMo2Cl7O2,2.5434,7.26701900,9.62580344,10.28145424,103.51288780,90.43926368,109.13855377
10278,PS3N5F2,2.5719,11.52852389,11.52852389,11.52852400,117.55470367,117.55470367,117.55470632
10279,Nd3SiS6Cl,2.5583000000000005,10.47931400,12.65027300,16.39011600,90.00000000,90.00000000,90.00000000
10280,Sm3Si2S8I,2.5736,8.85329534,8.85329534,10.80343671,82.45814637,82.45814637,52.19565589
10281,Gd3Si2Cl5O6,2.5738000000000003,7.52214995,7.52214995,11.87453369,80.72784852,80.72784852,89.08994103
10282,KNi3As3O11,2.5629999999999997,9.84319100,10.25604000,10.41556577,60.21672773,90.00000000,90.00000000
10283,CdSiO3,2.5768,7.36229600,7.08668100,15.32166452,84.95557608,90.00000000,90.00000000
10284,MnF2,2.5362999999999998,3.34818700,4.96199200,4.96199200,90.00000000,90.00000000,90.00000000
10285,Na2CaVP2O9,2.5594,6.65540500,10.17962100,10.67729900,90.00000000,90.00000000,90.00000000
10286,Nd3Si2S8I,2.5465999999999998,8.92661730,8.92661730,10.88263261,82.68647564,82.68647564,52.30606805
10287,Sr5Nb4O15,2.5564999999999998,5.74585644,5.74585644,11.67169612,89.34713984,89.34713984,59.88645047
10288,ZnSb2(XeF4)6,2.5330999999999997,9.73446831,9.73446831,9.73446900,64.27022466,64.27022466,64.27022194
10289,Ba7B4S13,2.5401,13.18921890,13.18921890,10.28688689,89.98055019,89.98055019,134.04816449
10290,Co5Se4(BrO6)2,2.5565999999999995,7.97099082,9.46782124,10.21882365,84.97821452,106.79458719,81.92507489
10291,RbFe(MoO4)2,2.5717,5.71855900,9.76036590,9.76036590,71.73261392,72.96547294,107.03452706
10292,BiI3,2.548,7.82922634,7.82922634,7.91867200,90.00000000,90.00000000,120.00000287
10293,SnPCl9,2.5637,10.57774812,10.57774812,6.74393900,90.00000000,90.00000000,107.34723525
10294,K2AgI3,2.5683,4.86538000,10.22567800,19.86579600,90.00000000,90.00000000,90.00000000
10295,TlGaI4,2.5565999999999995,8.12338100,8.41248900,16.48539446,84.68349184,90.00000000,90.00000000
10296,HfHg3(SeCl3)2,2.5702,7.72784700,6.75491700,13.47936417,88.22248004,90.00000000,90.00000000
10297,Na3AsS3,2.5478000000000005,8.63414000,8.63414000,8.63414000,90.00000000,90.00000000,90.00000000
10298,LiCo3P3O11,2.5639,9.66646900,9.84734100,10.31672731,60.11901924,90.00000000,90.00000000
10299,LiCr2P3O10,2.5513,8.65783800,4.74409000,9.49294066,77.76369270,90.00000000,90.00000000
10300,Cs2MnBr4,2.5604,7.99539000,10.42081800,14.08776300,90.00000000,90.00000000,90.00000000
10301,H10C5SeS2N3Cl,2.5383999999999998,9.06012300,11.71785600,22.30699000,90.00000000,90.00000000,90.00000000
10302,Na3Li3V2F12,2.5643000000000002,10.93392753,10.93392753,10.93392753,109.47122063,109.47122063,109.47122063
10303,ClF3,2.54,4.46776000,8.15960000,14.84646227,83.79068857,90.00000000,90.00000000
10304,P2WO8,2.5398,5.24558900,6.72504600,16.93205500,90.00000000,90.00000000,90.00000000
10305,Mo(HO2)2,2.5375,7.74330788,6.51591236,3.76835077,106.53786510,88.09468826,114.57769977
10306,MoH4O5,2.5636,4.24810600,6.17275500,7.85345652,79.34698504,90.00000000,90.00000000
10307,HI3O8,2.5473999999999997,7.94106000,7.74510900,13.75134125,57.83100790,90.00000000,90.00000000
10308,K3TiO4F3,2.5471,6.35240139,6.35240139,8.97673800,90.00000000,90.00000000,97.23223101
10309,Rb3Ti3(PO4)5,2.5366,6.37670100,15.03829500,18.62352100,90.00000000,90.00000000,90.00000000
10310,XeF6,2.5383,13.62409776,13.62409776,14.58339223,59.17164624,59.17164624,59.20519200
10311,CaC2,2.5537,3.93076600,3.96984475,7.44975234,101.21007744,85.54205829,119.53073083
10312,Cs2Co(PO3)4,2.5682,12.32115300,8.58153900,13.01785631,69.02735770,90.00000000,90.00000000
10313,Rb2Sn(H2N)6,2.5419,6.79299591,6.79299591,5.71732500,90.00000000,90.00000000,119.99999912
10314,K2Sn(H2N)6,2.5365,7.69583830,7.69583830,7.69583906,50.30117005,50.30117005,50.30117424
10315,TlFe(MoO4)2,2.5518,5.78875400,8.95242300,15.12194800,90.00000000,90.00000000,90.00000000
10316,BiIr3(CO)9,2.5404999999999998,8.18583300,9.13444089,12.14313905,85.04305411,78.89565811,68.85728471
10317,CoAg(CO)4,2.5385,10.78647784,10.78647784,6.40419909,86.80000099,86.80000099,112.53003606
10318,Si2Os3C12(ClO2)6,2.5585,8.41677900,8.54191587,11.60459414,80.53909881,69.85543736,66.49354135
10319,Co4Si(CO)14,2.5658000000000003,9.29814922,9.29814922,12.41393820,82.08116354,82.08116354,85.22329484
10320,Nb5P7O30,2.5661,8.87519700,8.93350448,15.89140022,91.58790427,106.11292398,90.03299148
10321,K2Pb(SO4)2,2.5337,8.12842372,8.12842372,8.12842421,50.08737643,50.08737643,50.08738336
10322,LiB13C2,2.5477999999999996,7.32117207,7.32117207,7.32117207,134.39093811,113.36420028,84.48394278
10323,Bi2Te2O7,2.5594,5.61793500,22.39352600,22.92381200,90.00000000,90.00000000,90.00000000
10324,NaNO3,2.5717,5.12924200,6.47355893,17.70518524,82.52805993,81.80349083,66.88929430
10325,Co(IO3)2,2.5444,5.45393400,10.87049445,10.90932118,119.24851003,90.02255735,90.01656073
10326,Na3HoTi2Nb2O12,2.5575,5.45865400,5.63778100,15.43889300,90.00000000,90.00000000,90.00000000
10327,K2ErTi(PO4)3,2.5603,10.27808000,10.27808000,10.27808000,90.00000000,90.00000000,90.00000000
10328,Ag2CSNClO4,2.5328999999999997,8.06671590,8.06671590,18.42438550,70.92649068,70.92649068,34.70089613
10329,CsSbTe6(OF5)6,2.5475999999999996,14.63561200,14.63561200,14.92393700,90.00000000,90.00000000,90.00000000
10330,MnC4BrO4,2.556,11.95851800,9.76946400,13.03584880,70.65774958,90.00000000,90.00000000
10331,Na2Al2Si3(HO3)4,2.5685,9.06646742,8.94979024,7.64012093,91.54146730,79.48017412,60.73830301
10332,K2YTi(PO4)3,2.5582,10.29939200,10.35428246,20.60098900,90.01096231,90.05537122,90.05883808
10333,ZnH4(ClO3)2,2.5709999999999997,7.08844100,6.43896900,8.66659734,47.91983580,90.00000000,90.00000000
10334,H2PbO2,2.5393,4.50524300,7.54860100,9.87045100,90.00000000,90.00000000,90.00000000
10335,Na2CaTi2(GeO4)3,2.5761000000000003,10.73252876,10.73252876,10.73252876,109.67146215,109.67146215,109.07147563