,pretty_formula,bandgap,cell_length_a,cell_lentgh_b,cell_lentgh_c,cell_angle_alpha,cell_angle_beta,cell_angle_gamma
7577,VAgP2O7,2.3636000000000004,8.17541700,7.45809800,9.74889599,68.14199692,90.00000000,90.00000000
7578,Si6BiH54C18N4Cl,2.3609999999999998,9.41066221,10.05076457,47.74110105,90.32324630,90.00000001,117.91470187
7579,FeB2P2(HO4)3,2.3688000000000002,9.08433245,9.08433245,6.88850181,79.76564738,79.76564738,42.62957153
7580,VH15C4S2(NO5)2,2.3669000000000002,18.69191200,7.25543600,9.54231890,80.38033933,90.00000000,90.00000000
7581,LaVI5O16,2.3631,18.36937700,7.59215600,12.76654919,55.90851037,90.00000000,90.00000000
7582,Si4Bi2AsH38(C7Cl)2,2.3631,9.84810300,13.18996345,14.38038137,96.08166532,103.02806941,93.78265021
7583,Cs2Re(ClO)3,2.3472,7.18981000,10.81605800,12.86761100,90.00000000,90.00000000,90.00000000
7584,Na3V3Cr2O12,2.3608000000000002,10.80670147,10.80670147,10.80670147,109.47122063,109.47122063,109.47122063
7585,Co3P2(HO)16,2.3697,8.39635739,8.39635739,4.70163976,81.06295358,81.06295358,105.84547262
7586,Sb2O3,2.3569999999999998,7.61340600,7.77717600,12.06785900,90.00000000,90.00000000,90.00000000
7587,Ca(GaS2)2,2.3711,27.40971500,6.92810200,7.32255816,70.65262853,90.00000000,90.00000000
7588,UCr4(H3O4)6,2.3464,9.03654523,9.03654523,13.40979068,80.09262857,80.09262857,78.50595550
7589,TlCl3,2.3474000000000004,6.76139545,6.76139545,6.91011999,80.77530278,80.77530278,119.95069227
7590,Zr4N3OF5,2.3558000000000003,5.44414000,5.21161200,21.82127138,89.80422594,90.00000000,90.00000000
7591,YFe3(BO3)4,2.3465000000000003,9.61627077,9.61627077,7.65740300,90.00000000,90.00000000,120.00000530
7592,V2NO5,2.3775,6.11195907,6.11195907,11.65516338,88.10304150,88.10304150,34.89316059
7593,Tl2Mo3P3O17,2.3487999999999998,9.65593200,10.98302200,15.90525927,68.64557768,90.00000000,90.00000000
7594,Rb2Mo3P3O17,2.3576,9.67745300,11.02645700,15.94654906,68.49443825,90.00000000,90.00000000
7595,Na4Zr2Ge5HO16,2.3651999999999997,5.53294200,7.17018000,21.47891992,72.97441490,90.00000000,90.00000000
7596,KSmTiO4,2.3472,5.42156100,5.50518200,13.23762200,90.00000000,90.00000000,90.00000000
7597,KNdTiO4,2.37,5.44195200,5.47994900,13.41183900,90.00000000,90.00000000,90.00000000
7598,KCaPHO4,2.3665,5.58633908,5.58633908,7.86581079,85.86527717,85.86527717,96.67575878
7599,KH4C6O3F5,2.3536,10.38319467,10.38319467,7.07793449,72.11196479,72.11196479,124.70164489
7600,KLaTiO4,2.3609999999999998,5.44867900,5.46568800,13.61461200,90.00000000,90.00000000,90.00000000
7601,HoFe3(BO3)4,2.3657,9.60005791,9.60005791,7.62754800,90.00000000,90.00000000,119.99999937
7602,DyFe3(BO3)4,2.3709999999999996,6.12436719,6.12436719,6.12436721,103.97742327,103.97742327,103.97741596
7603,DyMoO5,2.3473999999999995,12.60497000,5.36064100,6.94249589,63.07125370,90.00000000,90.00000000
7604,Cd3H28C12(N15O)2,2.3645,9.87358901,9.87358901,8.44914487,73.78218865,73.78218865,101.05175971
7605,Ba3Ta2MnO9,2.3757,9.33608587,9.33650409,11.77287100,108.37478814,108.37570016,66.18994210
7606,Al3Si3Ag4IO12,2.3659,9.07287700,9.07287700,9.07287700,90.00000000,90.00000000,90.00000000
7607,YBi(OF)2,2.3515999999999995,3.92847400,3.92847400,5.61481300,90.00000000,90.00000000,90.00000000
7608,Tl4BrCl3,2.3462,3.94410000,5.57499800,11.13855200,90.00000000,90.00000000,90.00000000
7609,Tl5Re6S8Cl7,2.349,18.29983022,18.29983022,18.29983008,30.38134180,30.38134180,30.38134189
7610,Tb9Al5S21,2.3534,11.45212890,11.45212890,11.45212875,94.70056488,94.70056488,94.70056263
7611,Sr2Al3FeO8,2.3451,9.00122000,5.30345400,8.56351874,86.06659714,90.00000000,90.00000000
7612,Sr10Mg5Mo3(WO15)2,2.3652,5.66025800,5.68195208,20.37760573,97.89971056,97.94020916,89.58774973
7613,Pb12BrCl7O8,2.3612,5.93870500,9.79589700,12.09774710,89.90366829,90.00000000,90.00000000
7614,NaLaTa2O7,2.3705,11.21002991,11.21002991,11.21002991,159.83224138,159.83224138,28.67276198
7615,NaBi3(ClO2)2,2.3702000000000005,6.77694610,6.77694610,5.56832800,90.00000000,90.00000000,131.45295563
7616,Na9Sm(SiSe3)4,2.3680000000000003,9.85792325,9.85792325,7.07114365,83.23215647,83.23215647,76.61943305
7617,Na6Al3Fe3(TeO6)4,2.3591,10.84326159,10.84326159,10.84326159,109.47122063,109.47122063,109.47122063
7618,NaTi2BiO6,2.3619,5.47688318,5.47688318,4.23080900,90.00000000,90.00000000,90.64439837
7619,NaTbTi2O6,2.3459000000000003,5.34677900,5.54270300,7.64938900,90.00000000,90.00000000,90.00000000
7620,NaDyTi2O6,2.3683,5.33060300,5.54139600,7.63665800,90.00000000,90.00000000,90.00000000
7621,LiLa4AlO8,2.3747000000000007,6.89493126,6.89493126,5.39493300,90.00000000,90.00000000,134.05069851
7622,LiBi3(BrO2)2,2.3773,6.95047738,6.95047738,5.57656400,90.00000000,90.00000000,132.76178108
7623,Li4VFe3(PO4)4,2.3679999999999994,6.11067100,4.75208000,10.46342151,89.92693616,90.00000000,90.00000000
7624,Li2Ti3ZnO8,2.3639,5.96416259,5.96416259,5.96416211,60.21615854,60.21615854,60.21615529
7625,Li2AlCoO4,2.3442999999999996,5.09026227,5.09026227,5.01467819,80.76281713,80.76281713,32.79774569
7626,LaCoSbPbO6,2.3660999999999994,8.13038388,8.13293846,9.91464180,66.01772033,66.04435281,90.56800113
7627,KGaGeS4,2.3772,16.27618200,6.99864100,7.27420515,68.53283540,90.00000000,90.00000000
7628,La10MgTi7O30,2.350299999999999,5.60378820,5.60378820,22.20587300,90.00000000,90.00000000,120.00000240
7629,Gd2GaSbO7,2.3775999999999997,7.33476070,7.33476070,7.33476070,120.52678004,119.44565515,90.02642240
7630,Dy9Al5S21,2.3589,11.41075840,11.41075840,11.41075796,94.58494593,94.58494593,94.58494261
7631,CrH15N6Cl2O,2.3716000000000004,7.02308863,7.03874403,10.68245400,90.00000000,90.00000000,95.05778953
7632,CaMg(PSe3)2,2.3479,8.19329102,8.19329102,8.19329066,47.79335685,47.79335685,47.79336199
7633,K6Mo7H18O35,2.373,10.74587806,10.74587806,20.30156600,90.00000000,90.00000000,132.21762458
7634,Cs3Re6(SCl)7,2.3720999999999997,13.28760200,9.46421000,11.38418130,73.37804707,90.00000000,90.00000000
7635,B8O,2.3751000000000007,5.31274400,5.13789700,7.36966058,87.57706308,90.00000000,90.00000000
7636,Ba2Sr3Nb10O30,2.369,4.06416800,12.66059600,12.66354366,89.65644162,90.00000000,90.00000000
7637,K2ZnSe2,2.3514999999999997,8.19011181,8.19011181,8.19011181,132.88637997,128.96539840,71.97706541
7638,LuSbO4,2.3432999999999997,5.33331100,7.52184100,7.60253352,80.58073474,90.00000000,90.00000000
7639,H16AuC12S2N3O4,2.3461999999999996,5.90241200,9.18816796,16.72562708,102.97764618,96.54125887,99.52530925
7640,CaTiCr(PO4)3,2.3575,8.85139971,8.85140065,8.85139965,58.39114266,58.39114198,58.39115109
7641,MgV4O9,2.369,4.99781900,8.29526000,8.29526000,90.00000000,90.00000000,90.00000000
7642,TiO2,2.3578,10.26961624,10.58039410,10.56895485,90.47826724,89.63335264,88.99971096
7643,Sc3Ge6N11,2.3507,10.19912066,10.19912066,5.10740398,90.00000000,90.00000000,90.00000000
7644,YGa2N3,2.3454,5.96970649,5.93442929,5.29934824,90.00000000,90.00000000,119.80471458
7645,Li3VSi4(HO6)2,2.3443,7.53761171,8.10728845,9.21296457,64.99353172,87.60042964,89.09097889
7646,Sr2CoGe2O7,2.3492,9.85866329,9.89652956,9.86337976,72.44531218,66.46964215,107.25833312
7647,MnZnPO5,2.3451,5.55340480,6.98104989,8.29658276,89.99807947,41.69475634,72.20489370
7648,Zn2CoWO6,2.3736999999999995,5.25764770,5.21219932,5.52637155,90.14608518,117.46743348,119.23360509
7649,FeHO2,2.3617,3.07818100,7.72335474,7.63874768,92.99281848,101.62537995,78.50457629
7650,CaLaCrSnO6,2.3708,5.69443300,9.70904043,9.74779814,70.15139485,89.99994698,89.99964898
7651,Ca(MoO2)2,2.3554999999999997,6.58358133,6.58358133,6.58358133,60.00000000,60.00000000,60.00000000
7652,BaVZnP2O9,2.3462000000000005,9.00728200,9.19036200,18.73567300,90.00000000,90.00000000,90.00000000
7653,MgNi(GeO3)2,2.3584,5.22476401,9.72615867,9.00858364,89.99876394,89.99776452,78.92447594
7654,KPrS2,2.3585000000000003,7.79346719,7.79346719,7.79346690,31.51967589,31.51967589,31.51967374
7655,KDyS2,2.3659999999999997,7.72913312,7.72913312,7.72913356,30.40757461,30.40757461,30.40757325
7656,Tb4(SiS4)3,2.3655999999999997,11.13564800,9.97020700,17.23747391,69.40245807,90.00000000,90.00000000
7657,LaMgFeWO6,2.3569999999999993,5.45735599,8.10752832,5.57873300,90.00106353,90.00070804,89.55606132
7658,Li2CoSn(PO4)2,2.3674000000000004,5.89832228,9.92426562,12.11118569,79.10202100,90.00227217,89.99094540
7659,Li2CoSn(PO4)2,2.3717,12.08105077,5.90657901,4.95054099,89.99559043,79.54378402,89.99591158
7660,K2NdP2S7,2.3522,6.94957200,9.22699800,21.42024334,70.27729338,90.00000000,90.00000000
7661,Cs4SnO4,2.3434999999999997,7.49224200,11.89173600,11.91791023,68.86749960,90.00000000,90.00000000
7662,GdPtF7,2.3562000000000003,5.60576300,9.01833400,12.13947565,62.25348853,90.00000000,90.00000000
7663,TmBO3,2.3645,6.56371394,6.56371394,8.68624300,90.00000000,90.00000000,119.99999941
7664,NaYTiO4,2.3722,5.30364800,5.43983200,12.47126600,90.00000000,90.00000000,90.00000000
7665,Na4Co7(PO4)6,2.3600999999999996,9.01306790,9.01306790,6.54024630,80.72568802,80.72568802,107.80473266
7666,K3AlSe3,2.3596999999999997,13.31312800,8.19607200,10.57082373,52.17791156,90.00000000,90.00000000
7667,K3NbS4,2.3437,9.38187100,9.61876600,10.88931200,90.00000000,90.00000000,90.00000000
7668,Nd2SiTeO4,2.3698000000000006,6.35765800,7.26720600,11.30188400,90.00000000,90.00000000,90.00000000
7669,Sr2ZnMoO6,2.3708000000000005,5.68972340,5.68972340,5.68972340,60.00000000,60.00000000,60.00000000
7670,NdFe3(BO3)4,2.3609999999999998,6.15805061,6.15805061,6.15805056,103.75290635,103.75290635,103.75291528
7671,BaNiO2,2.3488,5.49602140,5.49602140,4.78157400,90.00000000,90.00000000,116.04028216
7672,NaV(OF)2,2.3509,3.57551573,6.56286253,7.32158949,110.04631470,90.00000665,89.99999674
7673,MgV2O5,2.3654,5.42720392,5.42720392,11.21048800,90.00000000,90.00000000,139.86093029
7674,CaCrO4,2.3714,6.08409919,6.08409919,6.08409919,105.69545123,105.69545123,117.31950056
7675,LaCrO3,2.3706000000000005,5.56133300,7.87916600,5.60806500,89.99991550,90.00002052,90.00018726
7676,MnTe2O5,2.3706,8.94670831,8.94670831,13.14340518,90.00000000,90.00000000,90.00000000
7677,In6WO12,2.3503,6.34693642,6.34693642,6.34693687,99.12456035,99.12456035,99.12455872
7678,Co2P2O7,2.3738999999999995,8.44240600,7.07802500,9.11443912,66.81260805,90.00000000,90.00000000
7679,NiPbF6,2.3516,5.65911585,5.65911585,5.65911513,55.30387115,55.30387115,55.30387556
7680,Li8PbO6,2.3513,6.20022151,6.20022151,6.20022161,53.77239422,53.77239422,53.77238831
7681,Ni2As2O7,2.3472,5.40585319,9.66100357,5.40585979,96.83952543,106.86539069,96.83947970
7682,TlBr,2.3615,4.05712000,4.05712000,4.05712000,90.00000000,90.00000000,90.00000000
7683,PbI2,2.3703,4.68942013,4.68942013,7.50316000,90.00000000,90.00000000,120.00000184
7684,KBiP2S7,2.3761999999999994,12.74412400,9.23819800,9.77734716,89.57882243,90.00000000,90.00000000
7685,Zn(H2N)2,2.3713,12.41091297,12.41091297,12.41091297,131.83676269,131.83676269,70.48696497
7686,MgFe2P2(HO)18,2.3461999999999996,5.39630700,7.27747535,10.33623625,97.66260545,101.33520405,111.05234603
7687,V2O5,2.3444000000000003,3.61865800,4.79729300,11.55150800,90.00000000,90.00000000,90.00000000
7688,V2O5,2.3688000000000002,3.61667700,9.68871800,11.57819200,90.00000000,90.00000000,90.00000000
7689,LiFe(PO3)4,2.3636999999999997,8.56421716,8.56421716,13.17252928,45.17208930,45.17208930,50.97526647
7690,LiMo2P3O13,2.3599,6.46671900,7.61805649,11.36106060,76.30986003,86.51776050,80.04753446
7691,LiFeP2O7,2.3735999999999997,6.36399000,6.42521404,6.95583065,84.61277894,67.21834103,81.92777339
7692,LiVPO5,2.3513,6.32735233,6.32735233,4.59008400,90.00000000,90.00000000,91.53468597
7693,Te4O9,2.3744,7.48849615,7.48849615,7.48849599,78.59894912,78.59894912,78.59894744
7694,NaSO2,2.3554999999999997,6.75846300,6.49752100,6.66391191,61.40479225,90.00000000,90.00000000
7695,PI3,2.3551,7.46484353,7.46484353,8.43279700,90.00000000,90.00000000,119.99999586
7696,Cs3Sb2Cl9,2.3747,7.79652860,7.79652860,9.53674800,90.00000000,90.00000000,120.00000508
7697,InClO,2.3707000000000003,3.57798400,4.15798300,8.66275300,90.00000000,90.00000000,90.00000000
7698,As2S2F3,2.3707000000000003,6.15822500,9.96248500,20.20034000,90.00000000,90.00000000,90.00000000
7699,H5IO6,2.3715,18.56454100,5.01494200,6.09658869,57.29704075,90.00000000,90.00000000
7700,Ni(NF7)2,2.3579,6.78375555,6.78375555,6.78375555,119.04209055,119.04209055,91.66731316
7701,Zn2Ge3O8,2.3470000000000004,8.34598800,8.34598800,8.34598800,90.00000000,90.00000000,90.00000000
7702,Ca2IN,2.351,3.81794221,3.81794221,14.65963700,90.00000000,90.00000000,120.00000357
7703,CsBiO2,2.3677,6.42141372,6.42141372,6.09595929,68.77118438,68.77118438,97.35696954
7704,K4MnBr6,2.357,9.09581820,9.09581820,9.09581858,89.82815053,89.82815053,89.82814951
7705,K2TeS3,2.3442000000000003,9.30436600,6.48703300,14.82337753,65.06279203,90.00000000,90.00000000
7706,SbClF10,2.3509,5.99957500,8.37174500,15.43880500,90.00000000,90.00000000,90.00000000
7707,BiKrF7,2.3557,10.84372500,5.57881500,11.51833882,84.70638804,90.00000000,90.00000000
7708,Cr2(Bi2O5)3,2.3566,11.94956113,11.94956113,5.99156800,90.00000000,90.00000000,115.42900788
7709,SrVF5,2.3691,7.40264800,7.19625100,14.98060416,84.98783969,90.00000000,90.00000000
7710,KClO2,2.3547000000000002,4.53189081,4.53189081,7.56647900,90.00000000,90.00000000,93.67880866
7711,Ta2FeO6,2.3557000000000006,4.82484500,10.45758842,9.64969000,62.52428411,90.00000000,90.00000000
7712,Ca(HoS2)2,2.3682999999999996,7.23292494,7.23292494,7.23292494,109.49918211,109.49918211,109.41531214
7713,Sr(LaS2)2,2.3513,7.63110072,7.63110072,7.63110072,109.38452047,109.38452047,109.64476047
7714,Zr4N2O5,2.3773999999999997,8.87455500,8.89683578,8.90605565,109.33436377,109.54704027,109.25406201
7715,Lu10Ti6O27,2.3548000000000004,7.31527833,7.31527833,12.28016729,72.43770214,72.43770214,58.53260001
7716,Ca(DyS2)2,2.3465999999999996,7.25334865,7.25334865,7.25334865,109.50652483,109.50652483,109.40063529
7717,NaErS2,2.3615,7.04933561,7.04933561,7.04933577,32.51437979,32.51437979,32.51438182
7718,NaNbO3,2.3565000000000005,5.59754200,5.68743200,15.68108600,90.00000000,90.00000000,90.00000000
7719,BaHgO2,2.3731,6.98570004,6.98570004,6.98570050,35.00952754,35.00952754,35.00951995
7720,CsTiCoOF5,2.3613000000000004,7.30453006,7.48562002,10.70377400,89.99837818,89.98350273,89.99097402
7721,NaGdTiNbO6F,2.3485000000000005,7.35546300,7.35546300,10.41017100,90.00000000,90.00000000,90.00000000
7722,CaSnO3,2.3514000000000004,5.58311000,5.75621900,8.00135600,90.00000000,90.00000000,90.00000000
7723,NaNbO3,2.3685,5.62103300,5.69808000,7.84340400,90.00000000,90.00000000,90.00000000
7724,Ni3B7IO13,2.3700000000000006,8.59676666,8.59676666,8.59676666,60.00000000,60.00000000,60.00000000
7725,VPPbO6,2.3759,9.96355100,5.70066800,8.57597536,88.77677630,90.00000000,90.00000000
7726,RbLi(H2N)2,2.3503,3.87830800,7.88232800,11.72569300,90.00000000,90.00000000,90.00000000
7727,AgCO2,2.3498,5.94590600,4.01012600,9.97656633,70.86693492,90.00000000,90.00000000
7728,Mg2SiO4,2.3731,24.01213359,24.01213359,24.01213314,13.80726348,13.80726348,13.80726433
7729,KMo3Br7,2.3712999999999997,14.12848200,14.35291600,14.39333700,90.00000000,90.00000000,90.00000000
7730,Na2Mn2Si2O7,2.3448,13.47781500,5.82160000,10.62837976,56.70287663,90.00000000,90.00000000
7731,NaMo6Cl13,2.3510999999999997,9.18017000,9.27973248,14.26222306,97.18358305,101.82914719,114.56376777
7732,Nb2Hg3S(O2F5)2,2.3641,12.31350464,10.48363108,9.31479681,76.66396845,55.93823691,47.39779465
7733,Cs3P7,2.3442000000000003,9.25153400,9.25153400,16.94100100,90.00000000,90.00000000,90.00000000
7734,BaH2N2O5,2.3691,7.17410819,7.17410819,18.17519700,90.00000000,90.00000000,120.00000178
7735,SN,2.3571999999999997,7.70690300,9.18379800,12.86114618,46.93013238,90.00000000,90.00000000
7736,HgPb2(ClO)2,2.3759,6.31572917,6.31572917,7.91108455,59.38930912,59.38930912,36.85180704
7737,CsClO2,2.3727,4.81287766,4.81287766,8.57359500,90.00000000,90.00000000,90.63910572
7738,Sr2CuBrO2,2.3754999999999997,9.83491863,9.83491863,9.83491884,23.91360152,23.91360152,23.91360392
7739,Ba2NiMoO6,2.3773,5.78727560,5.78726989,10.02386197,90.00011494,73.22126906,60.00016831
7740,Ba3Tb2(PS4)4,2.3736999999999995,10.43538400,12.78381200,19.46190100,90.00000000,90.00000000,90.00000000
7741,Rb6U(Mo2O9)2,2.3604,10.61650681,10.61650681,14.39448557,59.36294918,59.36294918,67.40162638
7742,KNb5O13,2.3571,5.79959400,10.95673700,17.07994900,90.00000000,90.00000000,90.00000000
7743,Rb4V5CdClO15,2.3537999999999997,9.28674300,9.28674300,5.78633300,90.00000000,90.00000000,90.00000000
7744,Sn2IF3,2.3739000000000003,7.29391244,7.29391244,9.47369400,90.00000000,90.00000000,145.21222190
7745,SN,2.3699999999999997,7.69121100,9.22858400,9.51327100,90.00000000,90.00000000,90.00000000
7746,LiMnFeF6,2.3723,8.84190718,8.84190718,4.72755000,90.00000000,90.00000000,119.99999387
7747,CaNb2(P2O7)3,2.3702,8.63247016,8.63247016,12.61150233,85.22598660,85.22598660,77.24131455
7748,RbZrMnF7,2.3454,6.54375529,6.54375529,8.42406300,90.00000000,90.00000000,117.66157145
7749,GeXeF10,2.3598,7.25247900,7.54744100,13.42777600,90.00000000,90.00000000,90.00000000
7750,LiAlS3(Cl2O3)2,2.3552,9.75969600,10.24860900,13.69713400,90.00000000,90.00000000,90.00000000
7751,Cr4Si2Cl2O7,2.3577,12.95704300,6.51010400,10.64618788,87.97829577,90.00000000,90.00000000
7752,Ta2SnO6,2.3733999999999997,9.05726002,9.05726002,5.62191553,88.62123050,88.62123050,31.54040145
7753,MnF2,2.3648,5.01881300,5.46316700,5.93736800,90.00000000,90.00000000,90.00000000
7754,Na3Fe2P2O8F3,2.3434,10.79922100,12.95190700,12.95589200,90.00000000,90.00000000,90.00000000
7755,KBi6ClO9,2.3531000000000004,15.09720782,15.09720782,15.09720782,109.47122063,109.47122063,109.47122063
7756,Li2Mo4O13,2.3670999999999998,21.91256200,8.39817000,8.75384044,84.06972075,90.00000000,90.00000000
7757,Cd2PO4F,2.3713,7.85938560,7.85938560,10.73329625,62.00757053,62.00757053,51.36514948
7758,CdAs2(XeF5)4,2.3693999999999997,8.93293900,13.98558900,17.10906000,90.00000000,90.00000000,90.00000000
7759,Zn2SiO4,2.3529999999999998,5.83625148,5.83625148,5.83625148,60.00000000,60.00000000,60.00000000
7760,Ti3(BiO3)4,2.3653000000000004,17.00772830,17.00772830,5.49599000,89.91640359,89.91640359,18.37192898
7761,Ca5W(N2O)2,2.3523,6.79737900,6.14827700,8.52663437,89.18087005,90.00000000,90.00000000
7762,RbCdAuS2,2.3551,5.91933700,6.96972000,13.96045200,90.00000000,90.00000000,90.00000000
7763,La2SiS5,2.3563,12.69760200,7.65629100,7.94214176,78.61714392,90.00000000,90.00000000
7764,BaFe2(P2O7)2,2.3644999999999996,7.55462777,7.55462777,9.85307081,80.63620905,80.63620905,89.39470454
7765,K2Hg3S3O10,2.3588999999999998,7.65286500,8.03130500,21.21282100,90.00000000,90.00000000,90.00000000
7766,K3Nb3(BO6)2,2.346,8.91678360,8.91678360,4.03286500,90.00000000,90.00000000,119.99999702
7767,SeS4N3Cl5,2.3757,18.63156100,8.59612100,8.69106046,77.32570315,90.00000000,90.00000000
7768,P6Pb3Xe11F58,2.3579999999999997,8.87895892,8.87895892,19.06818646,79.23419464,79.23419464,83.11708913
7769,VTeO4,2.3675999999999995,4.59964529,5.48636023,13.68443000,90.00030962,89.99910460,90.94988158
7770,NbBi(TeO4)2,2.3520000000000003,5.68935500,8.22799100,31.93595800,90.00000000,90.00000000,90.00000000
7771,SrMo2(PO4)4,2.3566,7.87013700,8.04400900,12.48220465,50.96527266,90.00000000,90.00000000
7772,Fe4(P2O7)3,2.3761,21.70791300,7.52739800,9.67562069,89.86543005,90.00000000,90.00000000
7773,KV3Cd4O12,2.3544,9.52290433,9.52290433,7.20575116,72.88665508,72.88665508,92.45774198
7774,Rb3Hg2S3ClO12,2.3627000000000002,10.04379600,8.08149000,10.24350348,69.11744565,90.00000000,90.00000000
7775,K4V5CdClO15,2.3617,9.25260500,9.25260500,5.51130700,90.00000000,90.00000000,90.00000000
7776,Ba3Dy2(PS4)4,2.3757,10.42252000,12.76390200,19.44652400,90.00000000,90.00000000,90.00000000
7777,Te7(OF5)6,2.3684000000000003,10.77061415,10.77061415,10.77061467,50.12094264,50.12094264,50.12094025
7778,FeTe6O13,2.3474000000000004,8.82009513,8.82009513,8.82009533,72.09594020,72.09594020,72.09593683
7779,AgC4OF9,2.3671,6.98779500,10.39860175,11.02402817,84.86869348,89.35830044,88.03629353
7780,S,2.3629000000000002,9.02143300,16.27005800,20.32062400,90.00000000,90.00000000,90.00000000