,pretty_formula,bandgap,cell_length_a,cell_lentgh_b,cell_lentgh_c,cell_angle_alpha,cell_angle_beta,cell_angle_gamma
7162,HoPtF7,2.3186999999999998,5.53290300,8.85554900,11.96289468,62.49458427,90.00000000,90.00000000
7163,Rb3SbSe3,2.343,10.39194400,10.39194400,10.39194400,90.00000000,90.00000000,90.00000000
7164,Ba2SnS3F2,2.3078000000000003,6.30765200,6.43490900,19.59541400,90.00000000,90.00000000,90.00000000
7165,Sr3ScRhO6,2.3175,6.76117617,6.76117617,6.76117571,92.63615501,92.63615501,92.63615977
7166,CsV3(SeO6)2,2.315,7.19180403,7.19180403,12.29113500,90.00000000,90.00000000,120.00000029
7167,Mn2Te3O8,2.3219,7.10789894,7.10789894,12.05514197,82.79507217,82.79507217,45.59101777
7168,Mn2P2O7,2.3149,4.60445801,6.71539742,8.70576970,90.00000597,90.00000421,102.71889128
7169,YCrO3,2.3378,5.31725400,5.61467600,7.66736500,90.00022434,90.00040650,89.99991608
7170,CrCdO4,2.34,5.31932684,5.31932684,7.11341600,90.00000000,90.00000000,114.55252758
7171,V2Zn2O7,2.3404000000000003,5.09547411,5.51410608,5.51410608,101.14455017,101.47366219,101.47366214
7172,Sr2NiMoO6,2.3232999999999997,5.61246145,5.65605096,9.74635140,106.06916514,73.26622123,119.74521058
7173,TbFe3(BO3)4,2.3323,9.62084013,9.62084013,7.66169500,90.00000000,90.00000000,120.00000092
7174,YbCrO4,2.3346,5.99130889,5.99130889,5.99130889,105.59111656,105.59111656,117.54589857
7175,Ba2MnWO6,2.3107,5.90095802,10.22075880,5.90095754,106.77865115,59.99999774,106.77865539
7176,LiMoO2,2.3415,5.27366250,5.27366250,5.27366260,35.45785803,35.45785803,35.45785336
7177,HgMoO4,2.3375999999999997,6.53201703,6.53201703,5.27932471,70.91387954,70.91387954,58.01775813
7178,AlVMoO7,2.3304,5.45149900,8.30497500,12.96197200,90.00000000,90.00000000,90.00000000
7179,PPbS3,2.3420000000000005,7.60750300,6.80400500,11.47726746,55.46596148,90.00000000,90.00000000
7180,LaFe3(BO3)4,2.3332,6.17918970,6.17918970,6.17919034,103.67164444,103.67164444,103.67164489
7181,TlI,2.3197999999999994,7.08725562,7.08725562,5.30780300,90.00000000,90.00000000,140.92401466
7182,K2TeBr6,2.3360000000000003,8.03987000,7.68905700,13.26051133,54.80646793,90.00000000,90.00000000
7183,VBiO4,2.3423999999999996,6.91957675,6.91957675,6.91957675,135.96604544,135.96604544,64.03283386
7184,BiBrO,2.3083,3.95291000,3.95291000,8.88374700,90.00000000,90.00000000,90.00000000
7185,BrF3,2.341,4.87029826,4.87029826,6.22883300,90.00000000,90.00000000,106.88786761
7186,VBiO4,2.3330999999999995,6.92556626,6.92556626,5.17744778,68.04993963,68.04993963,116.02028971
7187,InSn2Br5,2.3079,9.51720723,9.51720723,9.51720723,127.36173727,127.36173727,77.66129436
7188,Co3B7ClO13,2.331,8.65226301,8.65226301,8.65226296,59.78750328,59.78750328,59.78750285
7189,CoBiPO5,2.3145,11.41856800,5.30407000,7.64591574,66.64773580,90.00000000,90.00000000
7190,VH12(ClO2)3,2.3138,6.42495500,6.55037300,11.99774670,81.20656389,90.00000000,90.00000000
7191,Sr2H6Ru,2.3106999999999998,5.39764163,5.39764163,5.39764163,60.00000000,60.00000000,60.00000000
7192,H2C(NO)2,2.3269,7.06759300,7.07283200,13.28819864,59.22422888,90.00000000,90.00000000
7193,VH20S2(NO7)2,2.3101000000000003,12.63563500,6.35426100,9.33032066,72.90120479,90.00000000,90.00000000
7194,Sr2NiMoO6,2.3395,5.64233028,5.64233028,5.64233028,60.00000000,60.00000000,60.00000000
7195,Li3Fe(PO4)2,2.3286,10.40006700,8.24261400,8.33040768,74.74119736,90.00000000,90.00000000
7196,LiFe(PO3)4,2.3365,9.85180505,9.85180505,11.44264470,39.33785964,39.33785964,50.68058580
7197,Li3Fe3(PO4)4,2.3379,5.01886800,8.32760700,14.53809489,79.95659548,90.00000000,90.00000000
7198,Li5Cr2P5O18,2.3194,9.31215522,10.62896070,6.48245929,93.03929341,91.08238408,96.02952778
7199,TlCl2,2.3141,9.44554156,9.44554156,9.44554156,135.42278761,135.42278761,64.87398829
7200,KTlF4,2.3213,8.21665392,8.21665392,10.38701800,90.00000000,90.00000000,119.99999932
7201,KTlCl4,2.3241,9.36670277,9.36670277,9.36670277,135.50445519,135.50445519,64.74739279
7202,CsBr3,2.3245,6.87108400,9.86817100,10.27733700,90.00000000,90.00000000,90.00000000
7203,K3V5O14,2.3228,8.79881225,8.79881225,5.30495800,90.00000000,90.00000000,120.00000186
7204,WCl4O,2.3324,6.73122305,6.73122305,6.73122305,94.82939427,94.82939427,146.26570659
7205,TaPCl10,2.3387,7.35821000,7.61361126,14.18700988,90.43230301,91.24302775,106.41674822
7206,Cs2GeCl6,2.3199,7.47716065,7.47716065,7.47716065,60.00000000,60.00000000,60.00000000
7207,Ti2PCl13,2.3095999999999997,11.13969100,12.12928600,30.16591900,90.00000000,90.00000000,90.00000000
7208,ReNF6,2.3382,9.59385300,5.45755900,10.28486629,70.35350432,90.00000000,90.00000000
7209,AlSbI6,2.3121,10.98407706,10.98407706,8.07858932,70.02286629,70.02286629,79.12585992
7210,P2Pb3S8,2.3125999999999998,11.19321300,11.19321300,11.19321300,90.00000000,90.00000000,90.00000000
7211,V2S2O11,2.3422,9.11630800,9.67299100,10.10396522,74.58519952,90.00000000,90.00000000
7212,ErSeI,2.3094,4.20281400,5.61328000,9.81979800,90.00000000,90.00000000,90.00000000
7213,KInBr3,2.3375,8.78791780,8.78791780,11.05620800,90.00000000,90.00000000,119.99999847
7214,In3Sb5O12,2.3275999999999994,9.28991340,9.28991340,9.28991340,109.47122063,109.47122063,109.47122063
7215,OsO3F2,2.3215,5.16111500,5.67608800,12.63792229,80.72756551,90.00000000,90.00000000
7216,Hg2Mo5O16,2.3426,5.64023100,9.40430200,14.57298267,70.59846780,90.00000000,90.00000000
7217,Tl4PbI6,2.3258,4.68031700,10.12358100,19.54354900,90.00000000,90.00000000,90.00000000
7218,B3H4,2.315,10.43001100,11.89933800,13.07799800,90.00000000,90.00000000,90.00000000
7219,Bi3BrO4,2.3202000000000003,5.81917200,5.84069100,19.30941500,90.00000000,90.00000000,90.00000000
7220,Th2AuF11,2.3367999999999998,8.72257085,8.72257085,8.72257085,97.66419412,97.66419412,137.16092072
7221,Ta2Mn3O8,2.3214,9.47934217,9.47934217,9.47934217,105.98038984,105.98038984,116.70412573
7222,Ga2S3,2.3169,6.55370233,6.55370233,6.43139611,81.02403184,81.02403184,120.84345094
7223,B36O5,2.3346999999999998,7.41053200,7.41035387,11.59296564,87.34021340,73.46900386,87.94909739
7224,Li10Zn4O9,2.329,9.83333000,9.83333000,4.70913500,90.00000000,90.00000000,90.00000000
7225,CdPbF6,2.3400000000000003,6.04250785,6.04250785,6.04250772,55.96664408,55.96664408,55.96665530
7226,Na4S2O5,2.3173999999999997,5.26730100,5.48309004,6.34578434,88.21200185,94.74026026,117.01500333
7227,Ca(TbS2)2,2.3188000000000004,7.27587104,7.27587104,7.27587104,109.52387352,109.52387352,109.36596612
7228,CaLaTiCrO6,2.3315,7.80890423,9.52735219,7.80890423,113.90896234,90.60279514,113.90896234
7229,GdTiCdSbO7,2.3317,7.32377600,7.32377600,10.39218000,90.00000000,90.00000000,90.00000000
7230,NaTaO3,2.3171999999999997,3.98310100,3.98310100,3.98310100,90.00000000,90.00000000,90.00000000
7231,Sr2GeS4,2.3198,6.77126800,6.79484900,8.28602483,72.02958512,90.00000000,90.00000000
7232,ScCuO2,2.3166999999999995,6.02440678,6.02440678,6.02440694,31.23810415,31.23810415,31.23810904
7233,NaTaO3,2.3243,5.54971400,5.54971400,3.99050600,90.00000000,90.00000000,90.00000000
7234,Pr2SeO2,2.3242000000000003,4.05497717,4.05497717,7.12747600,90.00000000,90.00000000,119.99998644
7235,Cs2PdF6,2.3151,6.52278004,6.52278004,6.52278004,60.00000000,60.00000000,60.00000000
7236,FeSnH12(OF)6,2.3308,6.70404177,8.92133543,20.03205035,89.99958792,89.93539293,99.98370214
7237,FeMoO4,2.3239,7.10579469,7.10579469,7.22045414,78.30494353,78.30494353,84.70055952
7238,CrO3,2.3076,5.05228805,5.33565584,5.83135000,89.99997195,90.00000000,118.24243172
7239,DyPS4,2.3342,12.22752174,12.22752174,12.22752174,127.57609512,127.57609512,77.31275050
7240,KCuC2,2.3109,4.91553300,4.91553300,7.75395500,90.00000000,90.00000000,90.00000000
7241,TlW3Br7,2.311,14.12943700,14.41460500,14.45101200,90.00000000,90.00000000,90.00000000
7242,CaMg2TiAl2SiO10,2.3251000000000004,9.02116600,9.91280088,10.48400297,115.44562406,84.28916677,114.25785974
7243,V2CdO6,2.3102,5.11523513,5.11523513,7.08481268,69.04528102,69.04528102,41.37167229
7244,Ba2SnS4,2.3106,7.51816100,12.82133900,18.07472600,90.00000000,90.00000000,90.00000000
7245,Cs2U(Cl2O)2,2.3301,7.27876119,7.27876119,5.95762553,81.55540415,81.55540415,65.22418538
7246,As2Se3(NF6)2,2.316,7.90493183,7.90493183,11.18002944,88.86405365,88.86405365,68.17115159
7247,KV3(SeO6)2,2.3293,7.15859961,7.15859961,11.93219100,90.00000000,90.00000000,119.99999635
7248,RbLaTa2O7,2.3257,3.91039400,3.91039400,11.31445800,90.00000000,90.00000000,90.00000000
7249,K3Nb3Ge2O13,2.3239,9.43365895,9.43365895,7.93414400,90.00000000,90.00000000,119.99999265
7250,K2Ge2S5,2.3391,11.01193078,11.01193078,8.94814515,79.86509574,79.86509574,90.13531077
7251,Rb2Ge2S5,2.3390999999999997,11.20735812,11.20735812,9.30532497,79.58785690,79.58785690,90.22607298
7252,Mn(PO3)2,2.3364,7.48095123,7.48095123,10.32427399,66.45614948,66.45614948,70.04078237
7253,RbCuC2,2.3276,4.93113200,4.93113200,8.49263000,90.00000000,90.00000000,90.00000000
7254,TiZn2O4,2.3096999999999994,6.07598400,6.07598400,8.51563600,90.00000000,90.00000000,90.00000000
7255,CdHgC4(SeN)4,2.323,8.72212584,8.72212584,8.72212584,94.45434224,94.45434224,147.63667142
7256,Li(CO)2,2.3314,6.03922286,6.03922286,3.38044055,82.83015589,82.83015589,106.24359438
7257,KLiZnO2,2.3118,5.73799353,5.73799353,8.33498711,61.39542036,61.39542036,34.33233728
7258,Ba2CuClO2,2.3106999999999998,9.92846561,9.92846561,9.92846631,25.19211891,25.19211891,25.19211567
7259,Na4CO4,2.3136,4.73854600,4.73854600,4.73854600,90.00000000,90.00000000,90.00000000
7260,Ba2CuBrO2,2.3279,10.18105209,10.18105209,10.18105258,24.63932913,24.63932913,24.63932480
7261,Rb2LiNbS4,2.3099000000000003,7.18801600,11.56855368,12.07045779,71.52783038,87.68498852,83.71963324
7262,MoPCl5O3,2.3144,15.49338700,8.90008700,16.70290203,64.03531422,90.00000000,90.00000000
7263,RbMnF4,2.3279,7.97571100,6.16482600,7.99920807,89.14334719,90.00000000,90.00000000
7264,KFe(MoO4)2,2.3150000000000004,5.75845300,5.75845138,14.81567800,90.00001717,89.99998232,120.00000357
7265,Ti4Fe(PO4)6,2.3257,14.97658942,14.97658942,14.97658869,33.54102363,33.54102363,33.54102350
7266,KUN3O11,2.3277,8.46434035,8.46434035,8.15060405,68.80142424,68.80142424,70.62718005
7267,VF4,2.3144,5.24098100,5.42487400,5.70720404,61.62496138,90.00000000,90.00000000
7268,Mn(IO3)2,2.3269,5.33024000,5.68669426,9.74472742,90.34577982,90.00000000,90.00000000
7269,KBi6BrO9,2.3298,15.16141495,15.16141495,15.16141495,109.47122063,109.47122063,109.47122063
7270,Rb3Pr3(PS4)4,2.3339,9.43163100,10.77865495,14.81909965,85.70929368,87.89052017,80.69887329
7271,S,2.3159,8.44086790,8.44086790,4.40337800,90.00000000,90.00000000,119.99999920
7272,BaNb2Bi2O9,2.3082000000000003,13.05287155,13.05287155,5.76026500,90.00000000,90.00000000,154.67017332
7273,BaMo2(PO4)4,2.3292,8.04205700,8.13905000,12.51701836,51.17636945,90.00000000,90.00000000
7274,Hg2SeO3,2.3265,10.25162118,10.25162118,5.26754500,90.00000000,90.00000000,112.73242359
7275,ZnCr6Si2Pb10(O16F)2,2.3263999999999996,9.65360600,10.11368672,10.15031288,65.72374284,72.35806191,69.36589357
7276,S,2.3376,14.99678400,8.49984800,19.00802097,77.46757855,90.00000000,90.00000000
7277,V2CdO6,2.3094,4.96966900,5.85515400,14.38215700,90.00000000,90.00000000,90.00000000
7278,TaP2S2Cl5,2.3399,13.80074600,6.83919200,27.75506903,79.69251964,90.00000000,90.00000000
7279,BaMnF4,2.3195,8.01688916,8.01688916,6.09806100,90.00000000,90.00000000,149.02801076
7280,GdMg(BO2)5,2.3199000000000005,7.65121600,8.72523500,12.52205126,48.82002345,90.00000000,90.00000000
7281,TaP4S6Cl5,2.3162,7.25330100,11.55703496,12.22439835,102.17445165,95.84897218,104.01633641
7282,ZrMnTlF7,2.3108,6.54774876,6.54774876,8.41330900,90.00000000,90.00000000,117.58110830
7283,KUP3O11,2.3388999999999998,8.70180900,15.09259200,20.23639112,48.40880428,90.00000000,90.00000000
7284,MoPb3Cl2O5,2.3406,7.26056698,7.26056698,11.21520200,90.00000000,90.00000000,133.88924206
7285,Ba17Tm16Zn8Pt4O57,2.3152999999999997,16.49256366,16.49256366,16.49256366,91.72541002,91.72541002,160.01479912
7286,AlAs3S5Cl4,2.3221000000000003,10.19334600,6.62791000,11.95371568,75.75653006,90.00000000,90.00000000
7287,Rb2Nb3Cl7O5,2.3124000000000002,9.75144006,9.75144006,11.32404034,71.34652800,71.34652800,55.20745878
7288,V4Fe2O13,2.3411,9.58063100,8.49427700,14.88313610,77.22615073,90.00000000,90.00000000
7289,VH16C6N6O7F2,2.313,7.75222300,10.82608167,10.95988394,116.90655894,108.57006240,84.68901636
7290,KLaGeS4,2.3093,6.74221400,6.71891300,8.72688800,72.41856987,90.00000000,90.00000000
7291,VPPbO6,2.3217000000000003,9.98105300,11.15709800,13.95974800,90.00000000,90.00000000,90.00000000
7292,Sn2PCO6,2.3293,6.03335800,4.82773300,22.74564615,85.11708828,90.00000000,90.00000000
7293,TiTlPO5,2.3146,6.57824400,10.64558400,13.10809400,90.00000000,90.00000000,90.00000000
7294,NaInAs2O7,2.3178,6.86194826,6.86194826,14.20611194,75.00440445,75.00440445,80.80799920
7295,KY(CO)8,2.3099,6.28401100,6.28401100,11.73025400,90.00000000,90.00000000,90.00000000
7296,CsUGa(PO5)2,2.3357,7.94227500,8.64539590,9.09602911,113.78987686,109.92436415,83.57661204
7297,SbAs3(S2F3)2,2.3354,6.19559800,10.11075500,20.81000100,90.00000000,90.00000000,90.00000000
7298,SrFe2(SeO3)4,2.341,9.05858792,9.05849386,9.11263742,110.08436050,112.32483369,105.80866315
7299,Cs2V4O9,2.3232,5.85324600,5.85324600,15.61202500,90.00000000,90.00000000,90.00000000
7300,Rb2Sb8O13,2.3306,17.34654800,7.69723900,14.36175658,89.85097722,90.00000000,90.00000000
7301,GdFe3(BO3)4,2.3233999999999995,9.65535996,9.65535996,7.68201000,90.00000000,90.00000000,119.99999975
7302,K3Hg3S2Cl5O6,2.3158,6.13855900,12.58653000,22.75847500,90.00000000,90.00000000,90.00000000
7303,Sr8Si2PtO14,2.3255,9.98604454,9.98604454,7.27649475,70.27804607,70.27804607,33.75718640
7304,V2Cd6Se5O21,2.3390999999999997,5.54938700,15.62895300,24.50141836,85.65136676,90.00000000,90.00000000
7305,K3Nb6VO19,2.3407,9.28439978,9.28439978,24.46717300,90.00000000,90.00000000,119.99999840
7306,TlSbO3,2.3226,5.40304145,5.40304145,16.24378200,90.00000000,90.00000000,119.99999332
7307,Co6Te5O16,2.3089999999999997,10.42252300,11.24260600,13.03074300,90.00000000,90.00000000,90.00000000
7308,CsPPbS4,2.3407999999999998,6.50971200,6.89285300,18.41196000,90.00000000,90.00000000,90.00000000
7309,Co3SnC12BrO12,2.327,10.49916782,10.49916782,12.28609800,90.00000000,90.00000000,119.99999887
7310,CdI2,2.3394000000000004,4.33034631,4.33034631,37.05303200,90.00000000,90.00000000,120.00000472
7311,InI3,2.3375000000000004,6.65067300,10.32269700,12.91039665,72.41319072,90.00000000,90.00000000
7312,CsPr9Nb(Br5N2)3,2.3280000000000003,12.46944240,12.46944240,13.86577000,90.00000000,90.00000000,120.00000210
7313,Si3N4,2.3290999999999995,7.41495217,7.41495217,6.25114300,90.00000000,90.00000000,120.00000155
7314,HfI4,2.3137999999999996,8.86481356,8.86481356,13.29377255,72.51883968,72.51883968,89.61552413
7315,CdI2,2.3081,4.32909007,4.32909007,37.12641200,90.00000000,90.00000000,120.00000112
7316,SeS4N3Cl5,2.3367999999999998,7.69486300,10.15886000,17.11220200,90.00000000,90.00000000,90.00000000
7317,Ti(NCl)3,2.313,5.88307600,7.05856775,7.85459626,89.87549554,96.85996100,101.38103211
7318,Zn(GaO2)2,2.3301999999999996,5.98141768,5.98141768,5.98141768,60.00000000,60.00000000,60.00000000
7319,Mo12PH24C6N3O40,2.3325,12.90058444,12.90058444,12.90058442,81.14179399,81.14179399,81.14179013
7320,Hf(MoO4)2,2.3085999999999998,10.36959328,10.36959328,9.57771900,90.00000000,90.00000000,119.99999541
7321,ReC5IO5,2.3133,6.78063484,6.78063484,10.99374300,90.00000000,90.00000000,110.32517841
7322,MoH4O5,2.3226,3.99701200,6.85192600,7.85075702,88.79575046,90.00000000,90.00000000
7323,KPPbS4,2.3237999999999994,6.56846500,6.70813400,17.11370500,90.00000000,90.00000000,90.00000000
7324,FePbC5N6O,2.3329999999999997,8.01466500,9.27638200,13.32580500,90.00000000,90.00000000,90.00000000
7325,U2Tl2Mo3O16,2.3209,8.41481600,9.87165600,20.40551500,90.00000000,90.00000000,90.00000000
7326,Cs3H5Pd,2.3242000000000003,8.33198600,8.33198600,6.32802800,90.00000000,90.00000000,90.00000000
7327,TlV3(SeO6)2,2.3173,7.16142973,7.16142973,11.82018200,90.00000000,90.00000000,119.99999754
7328,Bi4Cl2O5,2.3115,3.86079900,15.48087300,41.30677700,90.00000000,90.00000000,90.00000000
7329,TcC4IO4,2.3319,12.44377700,10.16054100,13.31951396,72.01511604,90.00000000,90.00000000
7330,Sr5Re3ClO15,2.338,7.52361300,10.69220400,18.68288900,90.00000000,90.00000000,90.00000000
7331,In2Cl3,2.327,12.77342200,14.74335900,25.43814100,90.00000000,90.00000000,90.00000000
7332,AgC3N3O2,2.3284,7.90055500,15.42150518,19.07903918,104.55358339,101.83444807,104.79065803
7333,TiNiO3,2.3181000000000003,5.50334700,9.02318311,9.02573046,68.39944746,84.67834924,84.88082678
7334,Nd2Zr8O19,2.3234,3.58499300,3.71821100,26.33702400,90.00000000,90.00000000,90.00000000
7335,Yb(YS2)2,2.3156999999999996,7.23128933,7.23128933,7.23128933,109.36028183,109.36028183,109.69332681
7336,Zn2GeS4,2.3269,6.39653074,6.39653074,6.39653074,129.29766643,129.29766643,74.53208514
7337,Dy14Ti10O41,2.3429,7.28367158,7.28367158,17.67440767,89.35757121,89.35757121,60.22132282
7338,RbMo3Br7,2.3358,12.92837576,12.92837576,10.46652471,68.80383992,68.80383992,72.56020529
7339,Na2CaSn2(GeO4)3,2.3158000000000003,10.93171715,10.93171715,10.93171715,109.59277804,109.59277804,109.22837841
7340,Sr4LaCl11,2.3191,5.01770500,5.02469912,35.66858820,90.53927789,90.00697150,90.03826789
7341,CdI2,2.3417,4.34194057,4.34194057,146.80109100,90.00000000,90.00000000,120.00000869
7342,CdI2,2.3419,4.34203695,4.34203695,139.58235400,90.00000000,90.00000000,119.99998400
7343,CdI2,2.3355,4.34227435,4.34227435,146.78769100,90.00000000,90.00000000,120.00000535
7344,CdI2,2.3384,4.34250419,4.34250419,146.80123300,90.00000000,90.00000000,120.00000290
7345,Sb2Cl5F4,2.3190999999999997,11.40842247,11.40842247,18.83881749,84.06865096,84.06865096,68.37915363
7346,Bi15PO25,2.3087,17.15308432,17.15308432,17.15308518,50.47160449,50.47160449,50.47160481
7347,Sr3Pr4O9,2.3403,7.03805000,9.22830473,9.81458351,91.88620129,97.10518280,107.51936991
7348,Na7Al10Si14(AgO16)3,2.3087999999999997,12.13183800,12.34379608,12.67936706,90.66876303,90.84473366,90.00653082
7349,Na2TiFe(PO4)3,2.3183,8.75187819,8.75187819,8.86927442,60.60229090,60.60229090,60.03088895
7350,Ba3LiTi5(SbO7)3,2.3327999999999998,9.18925900,9.19880127,11.77548050,89.87476332,89.87488367,60.07174945
7351,RbTiPO5,2.3171000000000004,8.61768400,9.95077700,10.31114200,90.00000000,90.00000000,90.00000000
7352,Na2H4RuC5(N2O)3,2.3135,6.32965400,12.13351100,15.88744700,90.00000000,90.00000000,90.00000000
7353,Na2H4Pt,2.3317,5.03143689,5.03143689,5.03143689,116.70788536,116.70788536,95.80344465
7354,Li2V(PO3)4,2.3137999999999996,10.29417900,9.25270200,9.47620523,88.15507640,90.00000000,90.00000000
7355,Li2Cr5(PO4)4,2.3402,5.46658400,8.07589104,8.53418526,114.94323706,88.59668738,101.31129603
7356,CrSb2H12(C2O)4,2.3215999999999997,8.80034989,8.80034989,10.33900375,69.41717400,69.41717400,81.70636448
7357,TiMnFe(PO4)3,2.3223,8.65152375,8.65152375,8.65152322,59.98689549,59.98689549,59.98689514
7358,Mn2SnC9ClO9,2.3249999999999997,12.45428100,8.81915100,15.60202092,64.04989308,90.00000000,90.00000000
7359,YbOF,2.3315,3.70436432,3.70436432,5.64232925,84.60518903,84.60518903,82.73695684
7360,Fe3C10SeO10,2.336,10.34454200,8.88047100,17.73989446,67.64616844,90.00000000,90.00000000
7361,Fe2C9(O4F)2,2.329,11.84747900,6.31391100,8.50378458,72.79958073,90.00000000,90.00000000
7362,Ni17(As3O16)2,2.3375000000000004,12.00420700,9.94289700,10.43739947,69.57068806,90.00000000,90.00000000
7363,LiFePHO5,2.327,5.17902500,7.39502601,10.65120478,104.24989949,96.72346972,109.46248800
7364,Na2Sn2H4O5,2.3097000000000003,5.96075300,14.67833600,17.20906700,90.00000000,90.00000000,90.00000000
7365,ReAgO4,2.322,7.04440246,7.04440246,7.04440246,133.63525879,133.63525879,67.65825774
7366,Mo12PH24C6N3O40,2.329,12.89555338,12.89555338,12.89555381,81.14966669,81.14966669,81.14966505
7367,Li10Sn(PS6)2,2.3384,8.66527900,8.94964927,13.14190842,91.99858175,90.60843564,90.07788052
7368,K4SnO4,2.3423,6.60067800,6.60885531,9.91430419,80.24692469,71.67500959,67.32549489
7369,TiMnCr(PO4)3,2.3110999999999997,8.64397316,8.64397316,8.64397291,59.80551785,59.80551785,59.80551078