,pretty_formula,bandgap,cell_length_a,cell_lentgh_b,cell_lentgh_c,cell_angle_alpha,cell_angle_beta,cell_angle_gamma
4688,TlV3O8,2.1201,8.56023400,5.10101300,7.93266225,82.73398009,90.00000000,90.00000000
4689,BaCo2(AsO4)2,2.1224000000000003,5.06269351,8.60416377,8.76884226,109.85939894,90.00000153,90.00000201
4690,KV3O8,2.121,8.60335000,5.12065200,7.89042914,81.26101141,90.00000000,90.00000000
4691,La2MgMnO6,2.1288,7.84088888,7.84088980,9.48833973,113.29825935,66.70173657,89.18330791
4692,V2Cd(PO5)2,2.1523000000000003,5.24631762,8.10607491,17.48949582,90.00000000,92.97839462,90.00000000
4693,Sb2PbO6,2.132,5.38631781,5.38631781,5.45821100,90.00000000,90.00000000,119.99999765
4694,Sr(InS2)2,2.1496,15.10718144,12.58713526,12.52278160,73.97468108,53.20761438,52.81770454
4695,KInP2S7,2.1283,6.75797018,6.75797018,6.52557194,84.12245043,84.12245043,97.82257425
4696,BaMnFeF7,2.1283,11.13575900,5.65807100,9.35392657,85.26737507,90.00000000,90.00000000
4697,Bi2MoO6,2.1438,5.61750600,5.62605800,16.62480100,90.00000000,90.00000000,90.00000000
4698,CoH8(IO5)2,2.1325,6.06091400,8.63929000,8.77174115,79.54844339,90.00000000,90.00000000
4699,SrLiH3,2.1487,4.63079100,4.63079100,4.63079100,90.00000000,90.00000000,90.00000000
4700,NaMn3P3(HO6)2,2.1214000000000004,8.78098572,8.78098572,6.74816483,73.04241877,73.04241877,91.12373272
4701,LiVP2O7,2.1494999999999997,6.39692359,6.39692359,13.34890624,74.86142607,74.86142607,80.65864345
4702,Li3V(PO4)2,2.1245000000000003,8.86573100,4.93236200,7.86222093,55.56627579,90.00000000,90.00000000
4703,LiV(PO3)4,2.1504,8.38693000,9.41893500,12.87040700,90.00000000,90.00000000,90.00000000
4704,SbXeF9,2.1394,15.85542400,5.56440800,9.48985375,68.00278559,90.00000000,90.00000000
4705,Li6Br3N,2.1401,6.39551496,6.39551496,6.39551496,60.00000000,60.00000000,60.00000000
4706,Na8Fe2O7,2.1192,11.12307500,8.79126100,10.21127435,72.37555085,90.00000000,90.00000000
4707,K2TiCl6,2.1203,7.08954168,7.08954168,7.08954168,60.00000000,60.00000000,60.00000000
4708,CoHO2,2.1482999999999994,4.65430490,4.65430501,4.65430520,36.08037761,36.08037755,36.08037424
4709,H8S5N2,2.1222,16.59957300,5.45855300,9.50808764,75.84122107,90.00000000,90.00000000
4710,V2NiO6,2.1245000000000003,4.86693600,7.26081950,8.94472692,102.13496195,90.13140971,94.32196780
4711,LaNb7O19,2.1183,6.34107608,6.34107608,20.38251000,90.00000000,90.00000000,120.00000087
4712,USe2O7,2.1387,6.80871400,9.59094728,12.04576928,109.43874217,92.50336093,93.31498642
4713,Al10Ge2O19,2.1222,15.70865166,15.70865166,7.83298600,90.00000000,90.00000000,158.25761854
4714,K2HgS2,2.1351,7.43125400,8.12258200,10.83919900,90.00000000,90.00000000,90.00000000
4715,Ti4Bi2O11,2.1216000000000004,7.70292933,7.70292933,10.31121981,48.73636004,48.73636004,28.53637127
4716,SrThBr6,2.1387,4.28546000,9.37859100,13.47064500,90.00000000,90.00000000,90.00000000
4717,Li5Br2N,2.142,6.94072649,6.94072649,6.94072649,147.22436601,127.96113208,62.87561968
4718,Rb3BiSe3,2.1254,10.38729500,10.38729500,10.38729500,90.00000000,90.00000000,90.00000000
4719,MoBr2,2.1220000000000003,10.03231544,10.03231544,12.10007500,90.00000000,90.00000000,105.86178003
4720,Rb6Sn2S7,2.1193,10.13666200,13.71384900,15.15346400,90.00000000,90.00000000,90.00000000
4721,SiH,2.1403,3.88918834,3.88918834,5.77584000,90.00000000,90.00000000,120.00000577
4722,LiAuC2,2.1532,3.86792808,3.86792808,5.24486200,90.00000000,90.00000000,120.00000136
4723,Hg2MoO4,2.1349,9.43828800,5.28948500,11.19714502,80.71170488,90.00000000,90.00000000
4724,Sr2GeSe4,2.1187000000000005,6.55179981,6.55179981,10.45055500,90.00000000,90.00000000,110.17982972
4725,Na4SiSe4,2.1323,7.21566900,9.31342100,14.44585700,90.00000000,90.00000000,90.00000000
4726,Er2MoO6,2.1504999999999996,9.88628968,9.88628968,5.35699371,74.92655899,74.92655899,67.92527243
4727,YPS4,2.1418,12.24994217,12.24994217,12.24994217,127.60766441,127.60766441,77.26146369
4728,LiMo2P3O13,2.1231,6.47136000,19.36405736,9.74584523,90.00000000,105.68270043,90.00000000
4729,TaO2F,2.1336,3.98116800,3.98116800,7.77348800,90.00000000,90.00000000,90.00000000
4730,Sr(SmS2)2,2.1281,7.47120904,7.47120904,7.47120904,109.40500091,109.40500091,109.60374141
4731,NbFeO4,2.1525000000000003,5.10295000,5.69909700,9.45796400,90.00000000,90.00000000,90.00000000
4732,KTaO3,2.1532,4.03083900,4.03083900,4.03083900,90.00000000,90.00000000,90.00000000
4733,Mg3(HO3)2,2.1515,5.42071039,5.42071039,8.11484784,83.00356456,83.00356456,33.70842370
4734,NaNd3Ti2(SbO7)2,2.1497,7.38223500,7.43327700,12.80480594,54.87344679,90.00000000,90.00000000
4735,Cd(GaS2)2,2.122,6.54336148,6.54336148,6.54336148,128.88539404,128.88539404,75.19504957
4736,LiSbO3,2.1517,4.99198800,5.27028200,8.60878700,90.00000000,90.00000000,90.00000000
4737,ErPS4,2.1502000000000003,12.17213816,12.17213816,12.17213816,127.60425184,127.60425184,77.26700713
4738,Ni3(AsO4)2,2.1524,6.02000700,6.44267964,8.28697801,89.99629770,90.00003288,117.85313147
4739,VAs2H4O9,2.1393000000000004,9.31698100,9.31698100,8.25435600,90.00000000,90.00000000,90.00000000
4740,K6Pb2O5,2.1281,6.51689900,7.74330490,12.65902410,79.02983291,84.25758348,88.05244432
4741,SrV2(P2O7)2,2.1212999999999997,4.89042400,7.19238146,8.06724991,89.47740566,92.85619554,106.00817128
4742,Gd2Br3N,2.1461,8.39989600,8.45896985,10.38388255,106.79452806,104.36669607,98.47096061
4743,CsHoZnSe3,2.1295,8.41101690,8.41101690,11.00257000,90.00000000,90.00000000,151.28265541
4744,NaVBP2H3O10,2.1435000000000004,6.73043801,6.73043801,9.28061230,69.99879815,69.99879815,77.19427150
4745,BaTm2NiO5,2.1509,5.67570700,7.01012200,12.24473600,90.00000000,90.00000000,90.00000000
4746,VAsO5,2.14,6.43858000,7.50109200,7.98035500,90.00000000,90.00000000,90.00000000
4747,KNbO3,2.1256000000000004,4.13066084,4.13066084,4.01755100,90.00000000,90.00000000,90.35217280
4748,TlBi25O39,2.1277999999999997,9.01738900,9.01872164,14.68172495,90.16505900,90.09363720,109.62967292
4749,K10Zr3Mn(MoO4)12,2.1303,14.28525591,14.28525591,14.28525630,44.50957158,44.50957158,44.50957374
4750,CdPS3,2.1211,6.29947438,6.29947438,7.59302183,82.28313588,82.28313588,120.00939286
4751,Fe2(TeO3)3,2.1308000000000002,7.63185500,9.65660000,11.23929700,90.00000000,90.00000000,90.00000000
4752,Ti(TlSe)4,2.134,8.69324400,8.78125700,16.31243455,75.11654359,90.00000000,90.00000000
4753,CsUNbO6,2.1254,8.81426000,7.73677500,10.77440140,75.96542934,90.00000000,90.00000000
4754,Sr2Li3NbN4,2.1278,7.05627700,8.74823100,9.03444200,90.00000000,90.00000000,90.00000000
4755,CeF4,2.1467,8.37092053,8.37092053,8.38321462,63.19037792,63.19037792,80.15613043
4756,LaH6Au3C6(N2O)3,2.1416999999999997,6.80452431,6.80452431,18.79716500,90.00000000,90.00000000,120.00000299
4757,AsS,2.1214,14.70253100,7.12719800,10.38767617,65.13882533,90.00000000,90.00000000
4758,Tl2(SeO3)3,2.1345,11.54893600,4.79986900,17.79638181,79.99255359,90.00000000,90.00000000
4759,ZnS,2.1299,15.91666359,15.91666359,15.91666320,13.89951741,13.89951741,13.89951967
4760,LiAuF4,2.1398,6.64238800,4.98771200,10.15660280,87.17376885,90.00000000,90.00000000
4761,BaMo(PO4)2,2.1366000000000005,4.97787392,4.97787392,7.98541635,86.27425093,86.27425093,65.14874420
4762,BaHg2(ClO)2,2.1378,12.13352500,12.13352500,4.37539400,90.00000000,90.00000000,90.00000000
4763,SrV4(AgO6)2,2.1241,10.73786800,10.73786800,5.08656300,90.00000000,90.00000000,90.00000000
4764,Ba3Bi2TeO9,2.1289999999999996,6.26483589,6.26483589,15.05388500,90.00000000,90.00000000,119.99999884
4765,S4N3O2F,2.1473,5.74016800,8.30292400,17.17838668,66.80490040,90.00000000,90.00000000
4766,LaPb6ClO7,2.1420999999999997,10.38557913,10.38557913,9.81468672,64.05111533,64.05111533,46.53626280
4767,K3NaUC3O11,2.1426,9.41848724,9.41848724,8.33884200,90.00000000,90.00000000,119.99999469
4768,KAu(IO3)4,2.1258999999999997,5.90511400,7.41267563,8.24552625,104.96433584,93.78116820,112.43619547
4769,KC(NO2)3,2.1525,8.36588500,7.77806000,11.19877744,55.67717347,90.00000000,90.00000000
4770,SbCNCl4O,2.1439,12.05733936,12.05733936,10.53633900,90.00000000,90.00000000,119.99999647
4771,KMnF4,2.1504000000000003,7.84839100,5.91195900,7.88665886,89.37257626,90.00000000,90.00000000
4772,NiPtF6,2.1207,5.44644958,5.44644958,5.44644957,55.34189156,55.34189156,55.34188888
4773,Li2U3(PO5)4,2.1409000000000002,5.40920600,6.77824006,12.67930594,94.82509625,99.13944414,110.45147719
4774,CuCSN,2.1241999999999996,3.83999456,3.83999456,10.95317200,90.00000000,90.00000000,120.00000963
4775,Tl2BiP2S7,2.1283999999999996,12.27057562,12.27057562,19.09521750,61.41387176,61.41387176,32.25246764
4776,K3Nb3Si2O13,2.1456,9.24658208,9.24658208,7.96645600,90.00000000,90.00000000,120.00000056
4777,K4U(PO5)2,2.1194,6.95722400,6.95722400,12.08247100,90.00000000,90.00000000,90.00000000
4778,P3S3N6F5,2.1283000000000003,10.00561500,15.13817300,16.39257000,90.00000000,90.00000000,90.00000000
4779,CsCdAuS2,2.1361,7.87829104,7.87829104,6.22467700,90.00000000,90.00000000,128.54461791
4780,K8UCr4(NO12)2,2.141,7.23612100,9.85146379,9.88198054,105.65623989,97.42188721,93.23657302
4781,Ba4Na2CaTi3Si4(SO13)2,2.1487,5.49723400,7.21002449,15.00263077,98.82547133,94.76206788,89.97888566
4782,UV2PbO9,2.1498,9.90611900,7.02201000,13.65989536,61.74453890,90.00000000,90.00000000
4783,Cs2UP2O9,2.1521,6.33681500,12.76852000,12.94088700,90.00000000,90.00000000,90.00000000
4784,Cs2KRhF6,2.1444,6.53548534,6.53548534,6.53548534,60.00000000,60.00000000,60.00000000
4785,V2CoH4C4(NO3)2,2.1384,7.63864400,10.50623300,11.69994000,90.00000000,90.00000000,90.00000000
4786,Co4Sn(CO)16,2.1266,12.47294077,12.47294077,12.47294077,60.00000000,60.00000000,60.00000000
4787,HfBrN,2.1298000000000004,3.58202600,4.12194700,9.05320900,90.00000000,90.00000000,90.00000000
4788,SnHg6(P2Cl3)2,2.1321,12.13392000,12.13392000,12.13392000,90.00000000,90.00000000,90.00000000
4789,SbAsPCl13,2.1273999999999997,9.84059143,9.84059143,12.17955600,90.00000000,90.00000000,115.28545524
4790,AuBr,2.1516,7.03073818,7.03073818,7.03073818,115.63331064,115.63331064,97.74590047
4791,CsGeBr3,2.1233999999999997,5.61279300,5.61279300,5.61279300,90.00000000,90.00000000,90.00000000
4792,PbCl4,2.1517999999999997,7.14005255,7.14005255,11.47250470,66.09565774,66.09565774,48.27721362
4793,LiCaGaN2,2.135,6.97422700,5.82076600,5.93660770,89.92791468,90.00000000,90.00000000
4794,TaP4(SCl)5,2.1359999999999997,13.89255100,7.30235500,18.74992965,76.82691221,90.00000000,90.00000000
4795,Cs2MnV2(BrO3)2,2.1289,5.76260091,9.44508309,12.06427300,89.99996356,90.00000121,72.23737378
4796,Cs2MnV2(ClO3)2,2.1453,5.67211426,9.43422931,11.63278100,90.00000000,90.00000000,107.49445372
4797,Cs4Ga2Se5,2.1204,8.11897700,9.53717148,11.47220247,76.20651111,85.72572345,80.88376459
4798,Cs3Cu2Br5,2.1310000000000002,9.84892100,11.10559300,13.85137900,90.00000000,90.00000000,90.00000000
4799,Ba7B4Se13,2.1190999999999995,13.84281234,13.84281234,10.66299975,89.99170168,89.99170168,134.66111746
4800,K2HgO2,2.1397,7.62396813,7.62396813,7.62396813,149.62171055,149.62171055,43.49697540
4801,Ca3UO6,2.1506999999999996,5.99427200,5.76377400,10.12940596,56.01114730,90.00000000,90.00000000
4802,AgMo4H22C8(NO5)3,2.1439,10.20740100,10.73796481,12.05634488,85.66834908,114.40087943,110.15055577
4803,UNiH14O9F4,2.1419,9.45578300,10.15794700,12.21327387,83.15463831,90.00000000,90.00000000
4804,Na4UC3O11,2.1525000000000003,9.43457558,9.43457558,13.21487300,90.00000000,90.00000000,119.99999702
4805,H10PtC(N4O)2,2.1428,5.12097100,5.73490973,14.77626123,86.72125347,82.58439200,82.52301435
4806,K4CO4,2.1205,5.67711224,5.67711224,6.09502534,65.55605826,65.55605826,91.40343982
4807,LiCdBO3,2.1367000000000003,8.43390613,8.43390613,3.31594700,90.00000000,90.00000000,120.00000102
4808,YClO,2.1501000000000006,4.07261100,4.07261100,6.48514500,90.00000000,90.00000000,90.00000000
4809,BiOs2(CO)6,2.1514,9.33283725,9.33283725,12.51701440,86.40526850,86.40526850,86.62827801
4810,Os3C12(IO6)2,2.1291,11.70166300,9.38453000,12.78162954,53.68403585,90.00000000,90.00000000
4811,K2RbBiSe3,2.1282,10.09221000,10.09221000,10.09221000,90.00000000,90.00000000,90.00000000
4812,GeS2,2.1396,12.47799271,12.47799271,12.47799271,126.27997866,126.27997866,79.42846249
4813,H5IO6,2.1395,19.29823600,5.03167500,5.80042462,57.73277983,90.00000000,90.00000000
4814,TeHO3,2.1459,4.83496000,8.32789200,11.98458500,90.00000000,90.00000000,90.00000000
4815,Mo(HO2)2,2.1474,3.82727000,6.12000248,7.65116061,69.42538140,82.23576231,75.99453494
4816,K2Pt(CN)4,2.1357,7.13175300,9.16920100,13.83887400,90.00000000,90.00000000,90.00000000
4817,KFeCo3(PO4)3,2.1396,6.22966900,9.79101600,16.82079500,90.00000000,90.00000000,90.00000000
4818,BaMg2H8Ru,2.1511000000000005,4.96961600,4.96961600,10.81218200,90.00000000,90.00000000,90.00000000
4819,CoH12(BrO7)2,2.1342,7.85278376,9.95138467,18.30189149,95.56990024,89.97085827,66.80586637
4820,K2H6PbO6,2.1354,5.87827151,5.87827151,5.87827107,69.71338610,69.71338610,69.71339029
4821,K2Pd(NO2)4,2.137,13.43708000,8.04412800,8.95170984,86.43660906,90.00000000,90.00000000
4822,ZnWO4,2.1412999999999998,7.69017854,7.69017854,5.31942200,90.00000000,90.00000000,123.94141616
4823,Os5C15SO15,2.1273,7.72355900,16.31478400,19.16690400,90.00000000,90.00000000,90.00000000
4824,RuC3Br2O3,2.1478,6.60668612,6.60668612,9.56670184,76.59644284,76.59644284,69.20835739
4825,GaRe2(CO)9,2.1241,17.67943571,17.67943571,17.67943571,132.99128895,132.99128895,68.66782831
4826,MnTeC5O6F5,2.1451000000000002,7.79429300,12.63115300,12.73005900,90.00000000,90.00000000,90.00000000
4827,MnInFe(CO)9,2.1452999999999998,13.43237179,13.44192588,17.92098677,112.05560858,111.89544168,89.92569883
4828,K2Fe2P2O7F2,2.1317000000000004,7.31031900,11.11279000,11.89247900,90.00000000,90.00000000,90.00000000
4829,Fe4Pb(CO)16,2.1198,19.98846000,11.05433700,12.05704406,89.28642669,90.00000000,90.00000000
4830,Fe6Sn2(CO)23,2.1295,8.97468000,12.67073573,16.63837170,95.52997658,104.39067546,100.60199221
4831,K2Pt(NO2)4,2.131,12.99121100,7.87002600,9.68877438,83.14638145,90.00000000,90.00000000
4832,Os4C12SO12,2.1335,8.51497400,15.25600994,16.66958219,104.24304828,90.03854415,106.17603507
4833,Te2S4(NCl3)3,2.119,9.51350100,10.26073801,11.50778987,83.09250091,69.93849970,75.64042574
4834,MgNb2(PbO3)3,2.1515000000000004,4.12712500,5.78465473,9.21080873,71.89390656,89.43067237,89.65032909
4835,NaPrS2,2.1515,7.28293944,7.28293944,7.28293944,133.47396199,133.47396199,67.91079332
4836,Nd2PbS4,2.1250999999999998,7.51691684,7.51691684,7.51691684,109.41234077,109.41234077,109.58904465
4837,La2YbS4,2.1412999999999993,7.51491121,7.51491121,7.51491121,109.64404602,109.64404602,109.12612005
4838,Dy14(PbS8)3,2.1303,7.30471635,7.30471635,18.86991683,75.05478590,75.05478590,70.09043212
4839,Yb(DyS2)2,2.1483000000000003,7.22533304,7.22533304,7.22533304,109.40677767,109.40677767,109.60018358
4840,Ti2CdO6,2.1357,6.09211600,5.95718200,6.47570665,84.79266149,90.00000000,90.00000000
4841,Y3NbO7,2.148,8.21288260,8.21288260,5.36685306,89.97149620,89.97149620,124.43466232
4842,Ta2W2O11,2.1194,7.34349069,7.34349069,13.93528022,69.72065413,69.72065413,59.72781197
4843,Bi(Mo2Cl5)3,2.1517,9.34113644,9.34113644,26.49434626,88.80192390,88.80192390,91.46450764
4844,Ge3Pb11O17,2.1412999999999998,7.48772656,20.26390763,22.61864394,92.38406799,95.14934497,97.44520207
4845,Te5As2Br4O5F26,2.1235999999999997,9.98995500,18.08544626,19.25502378,103.57803110,103.54310032,105.03945679
4846,Fe3MoC11SeS3O11,2.1277,17.59620000,10.96932200,13.24628794,57.25699732,90.00000000,90.00000000
4847,Li2FeP2HO8,2.1471,7.55730300,6.27238200,7.87920701,55.52161500,90.00000000,90.00000000
4848,In2Br3,2.1268000000000002,13.23699000,13.40572600,16.78481300,90.00000000,90.00000000,90.00000000
4849,KNaO,2.1324,4.05109300,4.05109300,6.29639200,90.00000000,90.00000000,90.00000000
4850,Sr5La3Mn4(WO6)4,2.1218000000000004,8.17417100,8.20516734,9.94502649,114.09060705,114.06846434,90.17286170
4851,K3HPdS2(ClO3)2,2.1225,9.31997925,9.31997925,7.14402800,90.00000000,90.00000000,110.50808048
4852,VH5Se2NO7,2.1340000000000003,10.67105200,4.05603900,8.06411751,81.45545312,90.00000000,90.00000000
4853,U(HO)8,2.1276,7.86909313,7.86909313,8.58623795,60.86418443,60.86418443,51.51247872
4854,FeBi25O39,2.1353,10.33105814,10.33105814,10.33105844,90.16161996,90.16161996,90.16161686
4855,HPb3ClO3,2.1415,5.94097600,6.99672300,15.58106000,90.00000000,90.00000000,90.00000000
4856,Na2H5RuN5O12,2.1252,9.87516384,9.87516384,7.52287632,69.58645687,69.58645687,97.11015195
4857,K2SrTa2O7,2.133,11.40392245,11.40392245,11.40392245,159.70744540,159.70744540,28.85212749
4858,SrPSe3,2.1432,7.91295000,7.13022600,12.02173803,55.47529320,90.00000000,90.00000000
4859,Na2GeH16Se3O8,2.1311999999999998,11.88097000,9.93809100,12.31170663,87.20084350,90.00000000,90.00000000
4860,Na3SbO4,2.1351,6.67729000,5.51568600,5.87887466,70.43277875,90.00000000,90.00000000
4861,Rb2Ga2Ge3O10,2.1308,9.55747423,9.55747423,12.89159997,50.80018630,50.80018630,41.94549469
4862,Li3CrB4O9,2.1429,8.54380300,5.89267600,6.70440179,76.61829052,90.00000000,90.00000000
4863,NaVP2O7,2.1406,7.17518203,9.66383001,9.66417229,61.05248058,81.51909138,98.47739910
4864,Li8VO5F,2.1195000000000004,6.01394187,9.86988443,9.55077596,101.71245681,105.91525108,82.82210306
4865,Li4Nb2Fe3Te3O16,2.1225,6.36254200,6.38756118,10.13643282,89.49692794,89.29806563,61.11182092
4866,Li2Co(CO3)2,2.1374,8.71404602,6.05694220,5.63901464,62.24905509,71.19782407,81.36479485
4867,Li6Mn(OF)3,2.1479,5.17000343,10.29784412,10.63931765,106.18144796,102.84122110,80.15886240
4868,LiFe2(PO4)2,2.141,5.45903500,7.79306000,8.53284642,75.59413233,90.00000000,90.00000000
4869,Li3Mn2OF5,2.1439000000000004,10.15510233,9.70776526,5.29466546,79.26494853,69.92088888,30.81416258
4870,Li2MnO2F,2.1471999999999998,4.88985800,5.62695200,8.56331800,90.00000000,90.00000000,90.00000000
4871,Bi3O4F,2.1429999999999993,9.23033185,9.23033185,5.83210803,81.62377079,81.62377079,36.68697191
4872,HfFeO3,2.1447000000000003,5.03794600,5.33040400,8.77720000,90.00000000,90.00000000,90.00000000
4873,Rb2SnO3,2.1292,6.65688511,6.65688511,5.87300300,90.00000000,90.00000000,111.08157205
4874,La2Se2O,2.1530000000000005,7.50910500,7.49488100,9.03745513,80.15385891,90.00000000,90.00000000
4875,GdAsO3,2.1317,12.06043200,4.44231000,6.50015463,59.90759353,90.00000000,90.00000000
4876,K3H8RhC4(ClO6)2,2.149,8.34788201,8.34788201,6.44823289,71.67254182,71.67254182,91.80278914
4877,Tb2SeO2,2.1375,3.86050000,3.87066400,12.24322300,90.00000000,90.00000000,90.00000000
4878,Li3Nb(NiO2)4,2.1242,5.96849600,5.96790159,5.97577415,88.89278859,119.40810863,60.71838540
4879,LiVCSO7,2.1326,9.62088318,6.42295000,5.28360515,90.00188299,87.22443609,89.99757624
4880,Li2CrFeO4,2.133,5.87734944,5.87734944,5.06018446,73.45918933,73.45918933,59.72173320
4881,LiTeO3,2.1354999999999995,5.17812100,5.34144800,8.96091100,90.00000000,90.00000000,90.00000000
4882,FeHO2,2.1488,5.31581121,6.16189296,5.70120765,105.65162894,62.04807743,89.99611614
4883,Li2TiNi2O5,2.1214000000000004,5.03235575,7.84112965,5.07822099,84.11259733,108.63532662,108.71770097
4884,LiVP4(H2O7)2,2.1273999999999997,5.16907671,13.54641702,7.44353951,91.75722981,99.20704581,91.76736937
4885,Na5GdO4,2.1337,5.59570700,7.59843300,7.91711600,90.00000000,90.00000000,90.00000000
4886,LiV2F7,2.1214,7.87190988,7.87190988,5.22515787,75.58155863,75.58155863,55.41289544
4887,V4CoNiO12,2.1374,5.87399329,6.79818103,6.79765891,95.84310929,74.68344176,105.31524433
4888,Li3SbS4,2.1491,6.47721000,6.92094700,8.02942000,90.00000000,90.00000000,90.00000000
4889,LiNbFeO4,2.1196,6.28749500,6.28749500,8.40819200,90.00000000,90.00000000,90.00000000
4890,Li3Al2VO6,2.1491000000000002,7.83876453,7.90636029,7.99122598,85.08507941,85.37994310,96.11810714
4891,BaLaI5,2.1335000000000006,6.46101600,8.01315473,11.65940766,89.06800793,105.84179352,93.92154337
4892,Li3Nb3TeO12,2.1375,5.20824000,5.50854307,7.64053817,94.67705840,90.22795275,90.00899709
4893,Li16Fe4SiO16,2.1427,5.48009400,6.40739845,10.96354330,89.04835122,89.85841109,89.55362232
4894,Li3V2(PO4)3,2.1296,9.17538785,9.17538785,16.55749599,65.16547252,65.16547252,58.06002062