,pretty_formula,bandgap,cell_length_a,cell_lentgh_b,cell_lentgh_c,cell_angle_alpha,cell_angle_beta,cell_angle_gamma
7370,CoH6(SeO4)2,2.3331,7.00526900,7.21605900,8.45501134,61.46274728,90.00000000,90.00000000
7371,Li2FeBO4,2.3149,4.81521500,5.82714800,10.78449100,90.00000000,90.00000000,90.00000000
7372,Y2SeO2,2.321,3.85788439,3.85788439,6.85563900,90.00000000,90.00000000,120.00000670
7373,Ba2Na2O3,2.3133,6.03864800,5.92133300,8.13448693,72.57741480,90.00000000,90.00000000
7374,LiFeSiO4,2.3335,7.49943009,7.49943009,9.62240700,90.00000000,90.00000000,120.00000081
7375,TiGa2O5,2.322,5.64301311,5.64301311,7.06332251,71.65583127,71.65583127,53.08632963
7376,Li2FeOF3,2.3327,5.19829404,5.19829404,10.45326405,78.17528451,78.17528451,33.31597131
7377,LiP2WO8,2.3119,7.34054100,5.28886000,8.03777069,88.28089807,90.00000000,90.00000000
7378,BiOF,2.3145,3.94908200,8.34661500,12.42451420,70.86738472,90.00000000,90.00000000
7379,Li6MnCrP2(CO7)2,2.3318000000000003,5.00837861,6.51432900,8.68167339,89.99895462,84.36485314,90.00313056
7380,Fe4OF6,2.3076,5.18318708,7.09564471,7.09555984,90.22933344,89.99970550,90.02056961
7381,Li2FePCO7,2.3313,5.06302700,6.34313999,8.50645996,96.09165094,93.04625877,94.25286649
7382,Li3TiCr3O8,2.3384,5.92294824,10.28539666,6.00610010,73.45604836,60.46071702,89.99856207
7383,Li4Cr3FeO8,2.3207999999999998,5.11306773,5.16579037,5.94027334,89.99998955,90.00001330,70.61957645
7384,Li3V2F9,2.3213,5.68048443,5.68048443,7.43985552,84.57503510,84.57503510,55.57769678
7385,K3VPCO7,2.3244999999999996,5.69821923,9.68958954,6.99911600,89.99986944,89.99997366,89.98180614
7386,LiFe2OF3,2.3114999999999997,8.25902675,8.25902675,8.25902675,136.45994484,115.28639689,81.25505571
7387,Li2Fe2OF6,2.3325,5.69348800,7.05750421,7.28996807,64.26008844,70.58285924,76.74128177
7388,Li3MnOF3,2.3240000000000003,5.20314768,5.20314768,10.47390239,79.60980965,79.60980965,34.30867712
7389,Li2TiTeO6,2.3234000000000004,4.99111900,5.13887700,8.49621200,90.00000000,90.00000000,90.00000000
7390,TaNbO5,2.3323,5.77471200,7.25002700,12.47965700,90.00000000,90.00000000,90.00000000
7391,Li3FeBPO7,2.3335999999999997,6.44885600,5.02020800,8.42058511,86.39198858,90.00000000,90.00000000
7392,LiFe3(OF3)2,2.3334,5.27375400,5.35671326,6.04957939,108.86000433,88.11195788,101.76232949
7393,CaCeO3,2.3114,5.84071900,6.06215000,8.51260200,90.00000000,90.00000000,90.00000000
7394,Cs3TmO3,2.3148999999999997,7.59865400,8.34533700,12.17406800,84.17586036,90.00000000,90.00000000
7395,LiNdTi2O6,2.3176,5.38743300,5.38743300,7.91891700,90.00000000,90.00000000,90.00000000
7396,TiO2,2.3304,5.94706716,5.94706716,9.06832600,90.00000000,90.00000000,119.99999069
7397,Ba3(ClO)2,2.3346999999999998,6.27849600,7.39168300,19.21390500,90.00000000,90.00000000,90.00000000
7398,V2Bi4O11,2.3259999999999996,11.32979700,5.71642800,8.13828635,70.81875513,90.00000000,90.00000000
7399,LiVF4,2.3350999999999997,5.39617100,6.12260400,9.68734574,83.84589145,90.00000000,90.00000000
7400,Li6VO4F,2.3236,5.26944083,9.05555474,10.81923028,66.86541531,101.49143027,84.01124432
7401,Li2MnP2O7,2.3242000000000003,6.81645035,7.25517216,8.21263243,63.78424938,114.47999260,89.98160823
7402,CrHSe3O8,2.3228,12.16198700,7.63475600,10.76091924,48.89588716,90.00000000,90.00000000
7403,In(HO)3,2.3237,7.02440698,7.00369559,7.05351026,111.34406308,110.35065186,106.90121425
7404,Li4Si4Bi2O13,2.3354,7.10095400,9.12309073,10.26288216,112.85657877,89.51883379,100.74895993
7405,LiCoPO4,2.3118,4.96153453,9.75700118,6.18112251,90.07867151,89.98329826,89.95071832
7406,Li2Cr3WO8,2.3180000000000005,8.55303356,8.53284815,8.54068084,90.13260985,90.01964377,90.06631878
7407,Bi10(Pb2O7)3,2.3235,7.35964600,7.65044424,14.39603619,92.40807346,97.40212683,118.34749529
7408,YTa3O9,2.333,5.56215800,8.82358703,8.86092124,66.50666270,71.71290841,71.65067260
7409,LiV(PO3)3,2.3407999999999998,7.36934100,9.24190900,12.06562800,90.00000000,90.00000000,90.00000000
7410,LiFe(PO3)4,2.3428,8.46221900,7.26403600,7.68813402,87.93639028,90.00000000,90.00000000
7411,Mg2NF,2.3105,5.90032634,5.90032634,5.90032634,138.09095435,138.09095435,60.76372634
7412,Li5FeHO4,2.3347999999999995,8.95424900,9.13780900,10.81370900,90.00000000,90.00000000,90.00000000
7413,LiFeSiO4,2.3096,8.60423469,8.60423469,8.60423453,107.33759128,107.33759128,107.33759424
7414,LiVF4,2.3278,5.29192600,5.53528600,5.92812137,63.78497540,90.00000000,90.00000000
7415,Li2VF5,2.3259,6.39868300,7.61986900,8.12987200,90.00000000,90.00000000,90.00000000
7416,VF4,2.3143000000000002,6.27461093,6.27461093,5.47520179,86.62531188,86.62531188,48.95051772
7417,CrOF4,2.3223,16.88848000,5.54828900,8.06305272,89.13883818,90.00000000,90.00000000
7418,Li2VO3F,2.3131999999999997,7.22921125,7.14606215,7.14970345,109.33440731,108.79008435,110.49551367
7419,Li6Co11(OF12)2,2.3211,8.10264200,8.21026827,8.75538327,107.99160946,106.16857973,90.09063746
7420,Li5MnO3F,2.3192999999999997,4.75085900,6.70323445,6.71295634,89.83824536,89.71491782,89.68789568
7421,Li3FeSiO5,2.3129,4.94562900,5.47328300,15.80406300,90.00000000,90.00000000,90.00000000
7422,Sm3Ta17O47,2.3312,3.91321700,12.80890100,19.39584771,76.92194620,90.00000000,90.00000000
7423,P4WO13,2.3114,7.11059500,8.32642100,17.48517300,90.00000000,90.00000000,90.00000000
7424,Li7Mn(O2F)2,2.3239,5.51436800,5.67678725,10.25371920,75.39727406,76.64598314,61.23096771
7425,Li2Fe2Si3O10,2.3293,5.42851700,5.46281500,16.93056804,93.90952973,90.82880671,119.48513289
7426,V(PO3)3,2.3141000000000003,8.49120500,8.55803000,9.06102300,90.00000000,90.00000000,90.00000000
7427,Li2BiBO4,2.3309,4.82420900,6.85174800,10.33408200,90.00000000,90.00000000,90.00000000
7428,Li2FePCO7,2.3371000000000004,5.05965300,10.15763928,11.01609136,74.28196777,88.02668751,83.05717240
7429,Li4Cr3FeO8,2.3103,5.12507900,5.88290632,10.60529652,73.90845829,76.19410882,73.30518593
7430,Li4Cr3FeO8,2.3082,5.12331368,5.88650984,10.19457921,90.05442464,80.45899477,73.28901900
7431,Sn2(SO4)3,2.3405,9.23227100,8.85305300,15.02692990,56.03977598,90.00000000,90.00000000
7432,Li7NbS6,2.3274999999999997,10.18192900,10.18192900,10.18192900,90.00000000,90.00000000,90.00000000
7433,Na2LiTi3Al(PO4)6,2.3310000000000004,8.57521200,8.57654907,8.79902841,61.10695023,61.13340129,60.08459837
7434,LiLa3MnO7,2.3399,5.45762300,5.47317300,20.99160717,74.99388987,90.00000000,90.00000000
7435,Li2AlVO4,2.3277,11.03472000,5.12523500,8.23192529,51.81975428,90.00000000,90.00000000
7436,Li3VSi4(HO6)2,2.3291000000000004,7.54273400,8.25017499,9.11571410,116.07877699,94.84635358,89.24673187
7437,Li2FeBO4,2.3342,4.80063100,5.35830500,5.81463500,90.00000000,90.00000000,90.00000000
7438,Li9Al(CoO4)2,2.3286000000000002,6.38820800,7.57898300,15.93186900,90.00000000,90.00000000,90.00000000
7439,Cs3YO3,2.3331999999999997,7.63534300,8.39358100,12.23763655,84.51815784,90.00000000,90.00000000
7440,Li2BSeO4,2.3328,5.05630000,7.44105100,10.83663679,88.54504145,90.00000000,90.00000000
7441,Li4TiNi5(PO4)6,2.3245999999999998,8.38947800,8.46470850,8.48317860,62.36554350,62.65352068,62.58600916
7442,Li3MnAsCO7,2.3186,8.52524312,8.52614057,9.86513925,106.60195366,106.59576022,106.58819202
7443,LiTi3MnCr(PO4)6,2.3381999999999996,8.62920587,8.62920587,8.62920614,59.92284300,59.92284300,59.92284077
7444,Y2W2O9,2.337,9.80549098,9.80549098,7.21316800,90.00000000,90.00000000,106.03120587
7445,CrO3,2.3333999999999997,6.86999377,6.86999377,5.85759582,74.73410512,74.73410512,84.39294666
7446,Li6Cr(BO3)3,2.3421000000000003,16.60805100,6.49899400,6.98738968,76.26023083,90.00000000,90.00000000
7447,Na3MnBSO7,2.3080999999999996,5.32009649,9.12021403,13.90067501,89.99933457,90.00301095,89.42379555
7448,Co(IO3)2,2.3412,5.23792000,7.07798100,14.77395400,90.00000000,90.00000000,90.00000000
7449,CaV5H19O23,2.3425000000000002,9.75342500,10.11192719,10.88458878,89.48775768,103.99160565,109.94795462
7450,Ba6Li2Ti16O39,2.315,9.67507879,9.67507879,9.19835019,83.09519824,83.09519824,75.25268186
7451,Li4TiCo2Ni3(PO4)6,2.3268,8.41454000,8.50778713,8.52599093,62.09020290,62.45929705,62.31374491
7452,Li3Sb3P8O29,2.3308,9.81431617,9.81431617,14.34933458,89.75970408,89.75970408,60.18746356
7453,Fe5P6WO24,2.3386,8.58177707,8.70699460,8.70699408,60.00000239,59.51614748,59.51614058
7454,Li14Fe4O13,2.3295,27.39099300,5.31866500,5.36533089,62.34152342,90.00000000,90.00000000
7455,ZnGeO3,2.3118000000000003,5.52456300,5.52456300,5.52456282,54.33987945,54.33987945,54.33987931
7456,NaGeSbO5,2.3243,6.50100200,10.88316300,13.20293100,90.00000000,90.00000000,90.00000000
7457,LiVP3HO10,2.3272,6.51199300,7.90841865,8.55310090,96.17797114,97.31490256,110.47871871
7458,V2O5,2.314,4.91047400,15.33652600,21.05991678,71.49117704,90.00000000,90.00000000
7459,LiVF4,2.3189,6.46163461,6.46163461,5.51731180,88.31876416,88.31876416,47.16584140
7460,H28RuS2(N3O5)2,2.3277,10.05346200,6.33261500,12.63794785,84.47200961,90.00000000,90.00000000
7461,Li2FeOF3,2.3409999999999997,5.96411500,5.96424900,8.58639000,90.00007179,89.99975500,89.99676256
7462,Li2V2P2(H4O5)3,2.3274,11.48018866,11.48018866,10.51878867,78.89141229,78.89141229,25.47130265
7463,LiFeSiO4,2.3086999999999995,4.80452500,5.87748700,10.20029100,90.00000000,90.00000000,90.00000000
7464,Li4FeCo3(PO4)4,2.3295999999999997,6.00885900,4.76369600,10.32723874,89.97834606,90.00000000,90.00000000
7465,NbC2NCl8,2.3156,6.16204324,6.16204324,16.75697400,90.00000000,90.00000000,97.49513765
7466,La2Si4CN6,2.3360000000000003,6.04106200,10.22881600,10.59125900,90.00000000,90.00000000,90.00000000
7467,ReTeSeCl4,2.3117,10.49671763,10.49671763,10.49671763,115.75264476,115.75264476,97.52890426
7468,ReTeSCl4,2.3311,10.40213438,10.40213438,10.40213438,115.18780469,115.18780469,98.55893348
7469,Ca2SnS4,2.3171,7.53482679,7.53482679,7.53482679,133.52362896,133.52362896,67.83300825
7470,TbBS3,2.3420999999999994,6.10527000,7.24764200,8.75519400,90.00000000,90.00000000,90.00000000
7471,LiSn3Sb(PO4)6,2.3125,8.97603583,8.97603583,8.97603585,58.29544487,58.29544487,58.29544726
7472,Na4Bi2O5,2.3266,5.14678500,8.90052127,9.06663029,66.79740505,74.20965627,73.30991577
7473,KIn(GeO3)2,2.3136,7.13633558,7.13633558,5.72381140,78.81997234,78.81997234,85.06236057
7474,RbNaS,2.3079,4.73560900,4.73560900,7.65764200,90.00000000,90.00000000,90.00000000
7475,Ca10V6O25,2.3164,10.02518038,10.02518038,6.80407200,90.00000000,90.00000000,120.00000253
7476,PrBN2,2.3193,7.44658660,7.44658660,7.44658649,110.47094518,110.47094518,110.47095386
7477,RbLiSe,2.3188,4.63545200,4.63545200,7.60628300,90.00000000,90.00000000,90.00000000
7478,RbTbS2,2.3392,8.04342647,8.04342647,8.04342610,29.53607036,29.53607036,29.53606492
7479,KCoH3(CO2)3,2.3272,7.05963982,7.05963982,6.83792585,87.04168954,87.04168954,80.24465873
7480,Na3BrO,2.3358,4.60155200,4.60155200,4.60155200,90.00000000,90.00000000,90.00000000
7481,NaTbS2,2.3185000000000002,7.03802944,7.03802944,7.03802952,33.11769429,33.11769429,33.11769053
7482,RbYS2,2.3385999999999996,8.03374750,8.03374750,8.03374749,29.44688993,29.44688993,29.44689254
7483,NaDyS2,2.3246,7.03271965,7.03271965,7.03271984,32.94943579,32.94943579,32.94944150
7484,Ca(FeO2)2,2.3086,6.13951696,6.13951696,6.13951696,121.11422129,121.11422129,88.08070852
7485,Ca(CoO2)2,2.3226999999999998,5.99513272,5.99513272,5.99513272,60.00000000,60.00000000,60.00000000
7486,Y2Ti3O9,2.3143,5.30592900,7.67988500,16.55254400,90.00000000,90.00000000,90.00000000
7487,AlFe3Se2ClO8,2.3216,5.57054100,8.29611151,9.92966320,90.64379968,91.24093027,90.12740139
7488,VZnF5,2.3399,9.89247700,5.21795800,7.62637404,69.83831007,90.00000000,90.00000000
7489,MgTiO3,2.3299,5.10085700,5.30255200,7.46431600,90.00000000,90.00000000,90.00000000
7490,TaAsO5,2.3192,6.30291700,7.74070200,8.37916000,90.00000000,90.00000000,90.00000000
7491,CaAsWO5,2.3175999999999997,8.37836886,6.02236244,9.74458222,90.00446456,89.98017109,89.43303172
7492,Ca2TaWO6,2.3111999999999995,5.70948664,5.70948664,5.70948699,59.53070442,59.53070442,59.53071362
7493,YSn3F15,2.3359,10.86716200,5.66253800,9.92427247,84.28151027,90.00000000,90.00000000
7494,Mg3Ni3(AsO4)4,2.3211999999999997,5.14513500,8.57013100,15.95699521,68.97028849,90.00000000,90.00000000
7495,Si2MoO6,2.3087999999999997,5.12412600,10.89411400,19.32762300,90.00000000,90.00000000,90.00000000
7496,CaBiSbO5,2.3351,5.66711600,11.60574000,16.36996600,90.00000000,90.00000000,90.00000000
7497,TiZnCr(PO4)3,2.3403,8.54455907,8.54455907,8.54455831,60.37306857,60.37306857,60.37306957
7498,ZnBi2P2O9,2.3383000000000003,7.11872300,7.47462800,15.76945900,90.00000000,90.00000000,90.00000000
7499,Ba2YW2F11,2.3242,7.88211627,7.88211627,15.15862700,90.00000000,90.00000000,120.00000224
7500,BaO2,2.3432999999999997,4.40908108,4.40908108,3.66374000,90.00000000,90.00000000,127.85866987
7501,KYS2,2.3526,7.76756202,7.76756202,7.76756213,30.24332359,30.24332359,30.24332259
7502,TiZnN2,2.3663000000000003,5.24809800,5.70014000,6.58189800,90.00000000,90.00000000,90.00000000
7503,Ba2H3I,2.3760000000000003,4.53675964,4.53675964,8.16797900,90.00000000,90.00000000,119.99999481
7504,O2,2.3734,5.18472417,5.18472417,5.18472440,56.86540217,56.86540217,56.86540387
7505,TaZn2N3,2.3585000000000003,5.74133543,5.74133543,5.44606500,90.00000000,90.00000000,119.36960639
7506,CsMg30SbO32,2.3685,8.72778600,8.72778600,8.72023400,90.00000000,90.00000000,90.00000000
7507,MgTe,2.3619999999999997,4.61088068,4.61088068,7.50937500,90.00000000,90.00000000,120.00000977
7508,Sr3CdPtO6,2.3624,6.87165181,6.87165181,6.87165132,90.23925439,90.23925439,90.23925380
7509,LiMg30BO31,2.3562000000000003,8.43952200,8.55027200,8.60013400,90.00000000,90.00000000,90.00000000
7510,KAuC2,2.3749000000000002,4.34328200,4.34328200,5.24089600,90.00000000,90.00000000,90.00000000
7511,NaLi2N,2.3439,3.82998448,3.82998448,3.82998448,60.00000000,60.00000000,60.00000000
7512,ZnS,2.3504000000000005,3.85392288,3.85392288,3.85392288,60.00000000,60.00000000,60.00000000
7513,CSe2,2.3505,4.65960767,4.65960767,9.46265200,90.00000000,90.00000000,100.01149503
7514,Dy4(SiS4)3,2.3623000000000003,11.10975100,9.93735300,17.17991940,69.48868276,90.00000000,90.00000000
7515,Sr2MgMoO6,2.3655,5.66223711,5.66223711,5.66223711,120.26609747,120.26609747,89.53972028
7516,BC2N,2.375700000000001,3.63584152,3.63584152,4.17412007,78.48003678,78.48003678,89.86857926
7517,N3Cl,2.3592,7.01342599,7.01342599,4.85340100,90.00000000,90.00000000,124.25873005
7518,DyNbO4,2.3704000000000005,5.69764830,5.69764830,5.69764830,118.66592527,118.66592527,92.32664640
7519,K3V2P2O8F3,2.3739,7.50090209,7.50090209,9.26273500,90.00000000,90.00000000,103.74479133
7520,RbCd(NO2)3,2.3512,5.50033653,5.50033653,5.50033679,90.55586864,90.55586864,90.55586766
7521,Rb2Mo(SO)2,2.3462,6.97337910,6.97337910,10.18994376,64.14887550,64.14887550,64.62460412
7522,NaIn(GeO3)2,2.3617999999999997,7.00410610,7.00410610,5.69946717,76.93192512,76.93192512,83.58568861
7523,Ti4Pb2O9F2,2.3576,7.75378275,7.75378275,10.49604003,48.14317467,48.14317467,28.69995801
7524,Zn2SiO5,2.3708,7.33497647,7.33497647,7.33497647,138.97419505,116.42463666,78.49611886
7525,BiI3,2.3476000000000004,13.27631200,8.03166700,9.12818286,65.74395405,90.00000000,90.00000000
7526,K2ScInBr6,2.3577000000000004,8.18705768,8.18705768,8.18705768,60.00000000,60.00000000,60.00000000
7527,K2YCuBr6,2.3589,7.73418689,7.73418689,7.73418689,60.00000000,60.00000000,60.00000000
7528,K2InAsF6,2.354,6.56123251,6.56123251,6.56123251,60.00000000,60.00000000,60.00000000
7529,Rb2YCuBr6,2.3529,7.77926637,7.77926637,7.77926637,60.00000000,60.00000000,60.00000000
7530,K2LaAuCl6,2.348,7.77643794,7.77643794,7.77643794,60.00000000,60.00000000,60.00000000
7531,Cs2KScI6,2.3657000000000004,8.90078298,8.90078298,8.90078298,60.00000000,60.00000000,60.00000000
7532,Cs2KInBr6,2.3646,8.32443721,8.32443721,8.32443721,60.00000000,60.00000000,60.00000000
7533,Cs3GaBr6,2.3494,8.44771845,8.44771845,8.44771845,60.00000000,60.00000000,60.00000000
7534,CsRb2GaBr6,2.3727,8.40217794,8.40217794,8.40217794,60.00000000,60.00000000,60.00000000
7535,Rb3Bi2I9,2.3462,8.59645090,8.59645090,21.93168123,89.29901350,89.29901350,119.83792159
7536,CaV(SiO3)2,2.3471,5.30973147,6.79926209,6.79926453,84.67961364,78.86880455,78.86831095
7537,Al4Si2Ni13(SbO14)2,2.3640999999999996,11.62761389,11.62761389,8.79156088,87.50770190,87.50770190,152.95714213
7538,Na3GdBr6,2.3445,7.97439748,7.97439748,7.97439731,56.02756780,56.02756780,56.02757403
7539,LiMnF4,2.3733,5.70723289,5.70723289,5.70723289,112.39368478,112.39368478,103.77224883
7540,Li5MnF8,2.3627000000000002,5.27161820,5.27161820,5.82128000,90.00000000,90.00000000,114.38727253
7541,Li2Ti3CoO8,2.3481,8.45315300,8.45315300,8.45315300,90.00000000,90.00000000,90.00000000
7542,Pr(ClO2)3,2.3677999999999995,5.90272200,6.96299700,8.56384855,70.02156232,90.00000000,90.00000000
7543,Na2CoH4(SeO5)2,2.3478999999999997,6.08717600,6.82105145,6.83372031,99.14121336,96.06755507,106.74088984
7544,Na2VCoF7,2.3694,7.42805199,7.42805199,24.95653477,81.39969665,81.39969665,60.39430045
7545,K2HgCl4,2.3538,7.89248000,9.07845700,12.00475300,90.00000000,90.00000000,90.00000000
7546,CdPNO5,2.3508,5.53684800,6.13073800,7.43487500,90.00000000,90.00000000,90.00000000
7547,AgC2N3,2.3618,3.85875401,3.85875401,22.18491200,90.00000000,90.00000000,120.00000013
7548,AgC3N3O2,2.3561,7.90028019,15.43591906,19.26077055,70.95628730,78.12626653,75.16838750
7549,CdI2,2.3742,4.33952862,4.33952862,44.19828760,87.18612813,87.18612813,59.99999047
7550,CoBi6(SO8)2,2.3499999999999996,8.28893476,9.00394522,11.37111902,108.41092368,69.94052027,94.57445995
7551,TcC5IO5,2.3691999999999998,6.86936561,6.86936561,11.02651900,90.00000000,90.00000000,111.40760176
7552,TlAgTeO3,2.3702999999999994,9.87870853,9.87870853,9.87870853,149.03293401,110.14550041,78.35375151
7553,Rb2TaCuS4,2.3516000000000004,13.99435844,12.48279445,7.46811421,85.15391598,62.72271190,32.12337211
7554,Cr2FeO4,2.3435999999999995,3.03231500,9.26104700,10.80390900,90.00020505,90.00006430,90.00237858
7555,Dy2ZnS4,2.36,6.33903100,7.92212600,13.56332600,90.00000000,90.00000000,90.00000000
7556,NaMnVO4,2.3708,5.38300402,6.95461102,9.71221401,89.99896523,90.00489045,90.00757655
7557,NbPb2Se2ClO8,2.3729000000000005,5.50400100,8.75776000,10.99775775,67.72292107,90.00000000,90.00000000
7558,Cs2Mo(SO)2,2.3710999999999998,8.00929000,9.60557900,11.28449900,90.00000000,90.00000000,90.00000000
7559,K2Mo(SO)2,2.3595,8.40196200,6.68681800,13.91816080,65.33629916,90.00000000,90.00000000
7560,Y2ZnS4,2.3437,6.34517200,7.91795100,13.59870600,90.00000000,90.00000000,90.00000000
7561,Cs2CdGe3S8,2.3475,7.56961600,12.97401100,17.33072600,90.00000000,90.00000000,90.00000000
7562,Rb3Bi2I9,2.3693999999999997,8.44828200,15.13087300,26.07709485,55.14351708,90.00000000,90.00000000
7563,Li4SnS4,2.3562,6.38683500,7.95124500,14.31939000,90.00000000,90.00000000,90.00000000
7564,SiBr2,2.3639,10.77583184,10.77583184,14.75220781,72.55608923,72.55608923,57.61684939
7565,NaH6C4SN3O5,2.3622,8.85128378,8.85128378,14.86305198,68.82032419,68.82032419,68.91977164
7566,DyFe3(BO3)4,2.3479,9.61802390,9.61802390,7.66837500,90.00000000,90.00000000,119.99999930
7567,Sb2H18C3(IN)9,2.3728,8.97806280,8.97806280,21.70237000,90.00000000,90.00000000,100.95576557
7568,Cs2NdN5O17,2.3674,7.58102048,7.58102048,17.31565324,78.34980268,78.34980268,76.36115703
7569,CdH2C4(S3N2)2,2.3750999999999998,8.05189300,11.93366800,13.02901000,90.00000000,90.00000000,90.00000000
7570,Cs3FeMo4O15,2.3633,10.32267000,11.77034300,18.99871757,52.66910121,90.00000000,90.00000000
7571,V4Cr2O13,2.3541,9.55155100,8.48419600,14.90447923,76.88776705,90.00000000,90.00000000
7572,Sn4HgB44H124C24(N4Cl)2,2.3542,15.50592108,15.50592108,15.50592108,92.16468229,118.75818945,118.75818945
7573,AgH36S8N11O18,2.354,12.55652217,12.55652217,12.55652217,114.59531023,114.59531023,99.64756700
7574,H2C(NO)2,2.358,6.69428800,7.14003500,11.88199200,90.00000000,90.00000000,90.00000000
7575,KSb2PO8,2.3699,7.22248251,7.22248251,15.26076210,84.82029101,84.82029101,59.71804252
7576,BPb3O4F,2.3537999999999997,6.63050000,7.77748200,12.15854100,90.00000000,90.00000000,90.00000000