,pretty_formula,bandgap,cell_length_a,cell_lentgh_b,cell_lentgh_c,cell_angle_alpha,cell_angle_beta,cell_angle_gamma
4895,Ba7Pb17O24,2.1217,19.08901100,7.93426000,8.02466601,61.09674352,90.00000000,90.00000000
4896,CoSbO4,2.1341000000000006,5.94704921,5.94704921,5.94704921,122.43345947,116.12371910,91.33908606
4897,LiV2P5O16,2.1233999999999997,9.51643100,7.59029200,10.36324835,68.44837215,90.00000000,90.00000000
4898,Sb8Cl2O11,2.1400999999999994,4.20587300,11.17833500,18.05585669,82.72807631,90.00000000,90.00000000
4899,Li2MnCO4,2.1324000000000005,5.11996000,6.85482900,11.04103526,84.40064780,90.00000000,90.00000000
4900,Li4V5(P3O11)2,2.1434999999999995,6.67362800,10.86575900,12.81198575,76.27201645,90.00000000,90.00000000
4901,LiV4(PO4)3,2.1191999999999993,10.72735238,10.72735238,10.72735238,142.88385523,142.88385523,53.49963903
4902,LiFeSiO4,2.1283,5.21636800,7.91448200,18.91125700,90.00000000,90.00000000,90.00000000
4903,Li3V2(PO4)3,2.1418000000000004,8.75954000,8.82300000,12.22920500,90.00000000,90.00000000,90.00000000
4904,Li7V7P6(O8F)3,2.135,13.65879572,13.65879572,6.44972100,90.00000000,90.00000000,119.99999865
4905,Li6Mn11(OF12)2,2.1416000000000004,8.38560300,8.54034249,9.02314298,109.21672315,107.09843281,90.18284300
4906,Li2V(CO3)2,2.1420999999999997,10.73972264,9.04890482,8.98384868,73.10519680,53.72620817,53.16859504
4907,Rb2LiV(PO4)2,2.1295,7.29474300,9.69228100,12.73858300,90.00000000,90.00000000,90.00000000
4908,Li2Ni(CO3)2,2.1332,9.55417600,7.47275500,9.13106333,57.85488689,90.00000000,90.00000000
4909,Li2VCrP2(HO5)2,2.1448,5.16801600,7.38183919,10.65397045,104.48853916,97.04327022,108.95245425
4910,Li2VCr(P2O7)2,2.134,7.01622500,9.54376036,12.75185769,99.52068436,104.20500152,99.37664069
4911,LiVOF4,2.1246,5.40186900,5.69685013,7.03443399,104.48111898,96.25876046,112.17030088
4912,Li3SbS4,2.1224,6.85568108,6.85568108,6.85568108,131.16008064,131.16008064,71.55886764
4913,Li2AgF3,2.1273,5.45793609,5.45793609,5.52020207,80.88672815,80.88672815,119.77508868
4914,Li4Fe2O5,2.1431999999999998,5.25706000,8.53456300,11.19852126,71.24380623,90.00000000,90.00000000
4915,Na4SnH32(SeO4)4,2.1349,16.61370600,8.49651300,8.82256402,87.94193791,90.00000000,90.00000000
4916,LiFe(CO3)2,2.1285,7.77864400,5.17168500,6.38064442,68.28794382,90.00000000,90.00000000
4917,Li2VCr(P2O7)2,2.1318,8.22518900,7.14760300,9.73450856,68.61791570,90.00000000,90.00000000
4918,LiVOF3,2.121,4.71449201,5.57165900,10.28377102,90.00214732,89.99399618,89.99883616
4919,LiVOF3,2.1516,7.83467151,7.33599667,5.15196804,90.01234363,90.01178678,74.27536581
4920,Li4V3OF11,2.1408,5.71613124,6.38520632,6.06456228,100.63083849,97.22386061,100.58811156
4921,LiVF5,2.1282,9.93135800,5.80731000,7.32084220,89.77350363,90.00000000,90.00000000
4922,LiVSiO4,2.1298999999999997,5.89647700,6.56103345,9.52252501,75.75054861,86.30470005,79.14651239
4923,Nb2O5,2.1388000000000003,7.78651500,11.48582774,11.57883425,88.01949215,80.32456039,80.26184485
4924,Li2FePO5,2.1467,5.60831500,4.88632300,16.55680578,73.32552488,90.00000000,90.00000000
4925,Li12VCr3P4(CO7)4,2.141,6.48831300,8.60011900,10.01045261,85.45602644,90.00000000,90.00000000
4926,Li12V3CrP4(CO7)4,2.1203000000000003,6.58877500,8.54037400,10.00941861,85.01593541,90.00000000,90.00000000
4927,Li4Ti11O24,2.1514,10.30434594,10.30434594,8.45391795,65.92968170,65.92968170,33.75407050
4928,Li2V(Si2O5)3,2.1445999999999996,12.68773200,6.87099600,7.44627250,69.24588263,90.00000000,90.00000000
4929,V2Co(H4O5)2,2.1276,8.38556856,8.38556856,7.12525182,74.13624097,74.13624097,73.66548869
4930,V3H4NO8,2.1333,8.57638700,5.06067400,7.97213310,82.59729411,90.00000000,90.00000000
4931,Li3VSiCO7,2.1428999999999996,6.48682902,10.12094134,8.39574445,85.21155712,90.00066453,89.99006966
4932,Li2BiBO4,2.1464,4.93924600,6.67169900,10.50478800,90.00000000,90.00000000,90.00000000
4933,Li7NbS6,2.1263,7.25625400,7.19131200,12.41713679,56.08325005,90.00000000,90.00000000
4934,Li3NbS4,2.149,10.09484700,11.24561700,12.52553000,90.00000000,90.00000000,90.00000000
4935,V3(PO4)2,2.1329999999999996,5.31914231,8.53655057,7.83850910,89.70605000,88.96909999,90.06236934
4936,Gd2TiO5,2.1322,3.67862700,7.55168100,15.73896700,90.00000000,90.00000000,90.00000000
4937,Li3MnAl2O6,2.1221,5.60010700,9.78829700,11.30303999,54.93654900,90.00000000,90.00000000
4938,Na2VPCO7,2.1222000000000003,6.55673300,10.37054354,10.62192185,119.58230010,90.00019329,90.00047847
4939,Li4Mn2Fe3P6WO24,2.1268000000000002,8.58273300,8.63874767,8.69785710,63.24133612,63.52672960,63.67676143
4940,Ba4Ti3O10,2.1186999999999996,14.97284721,14.97034299,4.09626567,82.17190945,82.10251341,15.72557714
4941,NbFe5(PO4)6,2.1482,8.58612744,8.58612744,8.58612742,61.01682424,61.01682424,61.01682126
4942,Na2FeAsCO7,2.1462,5.38045504,11.40217093,11.39622375,106.78190676,91.46277369,88.55293788
4943,Li2AlFeO4,2.1499999999999995,5.96842200,5.33127400,10.90250784,71.90222929,90.00000000,90.00000000
4944,LiVP3HO10,2.1464999999999996,7.31256842,7.31256842,9.59376695,72.13366931,72.13366931,68.63362093
4945,Na2MnPCO7,2.1294999999999997,8.48874700,8.54694975,10.23528978,107.73681010,107.40331939,104.30704851
4946,Li2Ti3NiO8,2.1325000000000003,5.94065500,10.29009200,9.69787900,90.00022952,89.99995708,89.99998479
4947,Ti3Sb2(PO4)6,2.144,8.80751224,8.80751224,8.80751195,59.31900788,59.31900788,59.31900911
4948,Li4Fe5P6WO24,2.1264,8.49226800,8.65805847,8.67987376,62.81701115,63.57486137,63.62300710
4949,LiMnVO4,2.1455,4.99937300,6.27652900,10.79546301,89.99948433,89.99583367,89.99972553
4950,Ti3Mn2Ni(PO4)6,2.1179,8.63726144,8.63726144,8.63726076,59.94435148,59.94435148,59.94435619
4951,Hf2N2O,2.1399,8.73213377,8.72729360,8.74173057,109.57079967,109.52522584,109.34299771
4952,AlFeO3,2.1356,4.86811200,5.12117900,7.33976900,89.99993521,89.99996085,89.99852011
4953,Ba2Ti6N2O11,2.1492,8.00733093,8.00733093,9.27685703,82.40058656,82.40058656,28.27434338
4954,V6O5F19,2.1504,5.38595700,5.55161076,14.99450906,79.43885695,89.67589109,88.28328811
4955,LiVF3,2.1399000000000004,5.00538800,8.82867800,10.67567400,90.00000000,90.00000000,90.00000000
4956,Tm2Sb2O7,2.1320999999999994,7.50586768,7.50586768,18.32047300,90.00000000,90.00000000,119.99999721
4957,Li2Co2(SO4)3,2.1387,8.66036300,8.83685500,12.23585100,90.00000000,90.00000000,90.00000000
4958,VOF2,2.1311999999999998,5.23850353,5.23850353,13.39654100,90.00000000,90.00000000,119.99999407
4959,CrB3(HO3)3,2.1189,9.31284400,11.76462100,14.27438200,90.00000000,90.00000000,90.00000000
4960,Rb3DyO3,2.1247,7.39395700,8.01509900,11.76353604,85.98267563,90.00000000,90.00000000
4961,Li2Fe2B2O7,2.1235999999999997,12.12774400,5.28990300,9.45928320,56.51694639,90.00000000,90.00000000
4962,Rb3HoO3,2.1338999999999997,7.38657100,7.99294500,11.76358586,85.91944098,90.00000000,90.00000000
4963,Zn2As2O7,2.1404,5.27782000,14.14268600,16.96831600,90.00000000,90.00000000,90.00000000
4964,Hf2N2O,2.1500000000000004,8.75524902,8.75062944,8.70498125,109.34003017,109.55887665,109.62835172
4965,Li8CrO6,2.1382,5.57253263,5.57253263,10.86769200,90.00000000,90.00000000,120.00000745
4966,LiCr(Si2O5)2,2.1357999999999997,7.09060700,7.41969276,9.62853389,99.07231031,103.50454946,116.68987926
4967,Al2ZnSe4,2.1529,6.78762429,6.78762429,6.78762429,130.97790118,130.97790118,71.84819177
4968,CaPdF6,2.1437,5.81178146,5.81178146,5.81178092,55.03706423,55.03706423,55.03705776
4969,ZnPtF6,2.1396,5.50901954,5.50901954,5.50901940,55.48777446,55.48777446,55.48776671
4970,Li3MnV(P2O7)2,2.1412,7.23680024,9.79590371,9.76933262,62.11008017,101.84729866,79.43603611
4971,Rb2Zr2O5,2.1348000000000003,4.11084300,4.11084300,9.20239700,90.00000000,90.00000000,90.00000000
4972,KZn4(SbO4)3,2.1347,6.84340613,6.84340613,6.84340698,107.75692554,107.75692554,107.75692883
4973,Rb2Hf2O5,2.1263000000000005,4.06197100,4.06197100,9.13653600,90.00000000,90.00000000,90.00000000
4974,GaFeO3,2.1201,5.16462200,8.85977321,9.53169730,89.96400447,89.88732827,89.93213573
4975,Sr2MgUO6,2.1254,5.87601400,5.85147100,10.09713510,54.89392903,90.00000000,90.00000000
4976,ScAgO2,2.1269,6.53876903,6.53876903,6.53876856,28.67879475,28.67879475,28.67879563
4977,AlTlS2,2.1197000000000004,7.36310299,7.36310299,15.35629522,83.08921149,83.08921149,90.01639695
4978,LiAg(CO2)2,2.1189,3.69992500,5.53048872,10.02920666,93.29240237,91.01802817,92.56978550
4979,Li6PS5Br,2.1315,7.28689094,7.28689094,7.28689094,60.00000000,60.00000000,60.00000000
4980,Li6PS5Cl,2.1394,7.26870274,7.26870274,7.26870274,60.00000000,60.00000000,60.00000000
4981,B2(CN2)3,2.1208,7.16882285,7.16882285,7.16882295,71.66410497,71.66410497,71.66410547
4982,SiC,2.1418999999999997,17.79981459,17.79981459,17.79981499,9.97662352,9.97662352,9.97662536
4983,KGeBr3,2.1307,5.60540902,5.60540902,5.59204652,89.03163450,89.03163450,89.23977012
4984,TlHgF3,2.1243,4.61202300,4.61823016,4.63378249,88.50175691,89.46870179,89.84843039
4985,BaCaCoF7,2.1235,10.43785500,5.81910700,9.94396064,87.05726750,90.00000000,90.00000000
4986,MoP2O7,2.1462000000000003,8.93679000,7.03545500,9.72158935,70.87666592,90.00000000,90.00000000
4987,MoF5,2.1193999999999997,5.53945543,5.53945543,7.99113847,69.26617246,69.26617246,70.12451907
4988,La2ZnWO6,2.1243000000000007,5.65896299,5.65896299,5.65896274,61.81126786,61.81126786,61.81125852
4989,CaBiAsO5,2.1407000000000003,7.09862600,7.34522200,9.43626000,90.00000000,90.00000000,90.00000000
4990,Mg(SbO2)4,2.1268000000000002,8.94474457,8.94474457,9.78757749,64.00139844,64.00139844,20.45550893
4991,MgCoF5,2.142,9.59941300,5.18507400,7.35479223,70.03992144,90.00000000,90.00000000
4992,Ca2Bi2O5,2.1234,4.43424600,6.53111000,10.27154000,90.00000000,90.00000000,90.00000000
4993,Ca(SbO2)2,2.1496999999999997,6.49190300,7.13489575,18.20639933,91.91721497,89.26792501,116.14102416
4994,Zn(SbO2)2,2.1198,6.48982791,6.48982791,12.02892391,64.02798852,64.02798852,30.38679606
4995,Ca(SbO2)2,2.144,7.09226839,7.09226839,11.35026729,64.50899895,64.50899895,28.30404752
4996,MgSn(GeO3)2,2.1365,7.40720245,7.40720245,5.57936817,78.33779043,78.33779043,88.31522332
4997,CaGe2WO6,2.1382,8.34771405,8.34771405,5.37490699,81.88371339,81.88371339,62.64910271
4998,MgSb2P2O9,2.1489000000000003,6.69528600,6.94778200,15.78809400,90.00000000,90.00000000,90.00000000
4999,LaMgTaCrO6,2.1351000000000004,5.53781600,5.34092800,10.07655280,58.50299674,90.00000000,90.00000000
5000,CaMnO2,2.1858000000000004,5.66989637,5.73892988,6.61823472,89.98028623,73.05454296,99.75316747
5001,LuAgO2,2.1874000000000002,6.56044878,6.56044878,6.56044898,30.22685424,30.22685424,30.22685824
5002,Sr2SO,2.1886,4.04323700,4.04323700,5.71800000,90.00000000,90.00000000,90.00000000
5003,BaCaO2,2.1746,3.76031100,3.76031100,5.30851800,90.00000000,90.00000000,90.00000000
5004,CeO2,2.1576000000000004,5.13465700,5.13465700,3.63642000,90.00000000,90.00000000,90.00000000
5005,Na2ZnSe2,2.1643,7.45616399,7.45616399,7.45616399,130.68650275,126.11042690,76.03889377
5006,Sr3Al3N5,2.1584000000000003,5.78263100,7.29575309,8.63672429,108.88641458,102.66045870,96.09638724
5007,K3W2N5,2.1799999999999997,10.38646607,10.38646607,10.38646607,102.23332499,102.23332499,125.18465788
5008,LiMg14MnO16,2.1574,4.26104100,8.48515600,8.53358700,90.00000000,90.00000000,90.00000000
5009,LiMg30CoO32,2.1798,8.50621200,8.50621200,8.48724000,90.00000000,90.00000000,90.00000000
5010,Mg30GaBO32,2.1617999999999995,8.54060800,8.54060800,8.53043300,90.00000000,90.00000000,90.00000000
5011,Mg30BiBO32,2.1727999999999996,8.62775800,8.62775800,8.62303300,90.00000000,90.00000000,90.00000000
5012,NaCaH3,2.1663,3.63055100,6.81440325,6.86598105,117.01000056,99.71238681,95.21055401
5013,Ba3SrO4,2.1745,5.53246800,5.53246800,5.53246800,90.00000000,90.00000000,90.00000000
5014,CaZn3Se4,2.173,5.96286000,5.96286000,5.96286000,90.00000000,90.00000000,90.00000000
5015,Na2Zn2S3,2.1607000000000003,9.90879815,9.90879815,6.73488755,70.40071947,70.40071947,82.86646844
5016,Al2ZnS4,2.187099999999999,5.91054400,7.22181000,12.47498600,90.00000000,90.00000000,90.00000000
5017,CaPSe3,2.1698,7.60847300,6.96027900,11.73487260,55.88788321,90.00000000,90.00000000
5018,BaPSe3,2.1782,8.12517200,7.16979200,12.53827018,56.29270726,90.00000000,90.00000000
5019,TeO3,2.16,5.24199452,5.24199452,5.38183454,82.49127022,82.49127022,120.03531715
5020,LiCr4P7O24,2.1688,10.17480700,10.26224689,10.72063205,108.34560981,111.61388876,105.04177731
5021,TlCd(NO2)3,2.176,5.49494314,5.49494314,5.49494336,90.61278911,90.61278911,90.61278798
5022,CsDyZnSe3,2.1540999999999997,8.31628667,8.31628667,10.99342400,90.00000000,90.00000000,150.63880021
5023,AlCuBr4,2.17,5.79431300,5.79431300,10.72024100,90.00000000,90.00000000,90.00000000
5024,BaFe2(PO4)2,2.1555000000000004,4.94748552,8.56034700,8.46182720,109.67610201,89.84772120,90.02987119
5025,TlSb(PS3)2,2.1805999999999996,7.88197000,6.78761800,9.87880785,88.04318501,90.00000000,90.00000000
5026,TePb2O5,2.1699,7.29404956,7.29404956,7.67452622,58.80942877,58.80942877,47.14833797
5027,K2LiIrF6,2.1837999999999997,5.82300737,5.82300737,5.82300737,60.00000000,60.00000000,60.00000000
5028,K2ErAuCl6,2.1759999999999997,7.56141242,7.56141242,7.56141242,60.00000000,60.00000000,60.00000000
5029,K2TiHgF6,2.1811,6.79801711,6.79801711,6.79801711,60.00000000,60.00000000,60.00000000
5030,CsK2IrF6,2.1604,6.75909371,6.75909371,6.75909371,60.00000000,60.00000000,60.00000000
5031,Cs2KAsI6,2.1792000000000002,8.88603556,8.88603556,8.88603556,60.00000000,60.00000000,60.00000000
5032,Cs2DyAuCl6,2.1786,7.68552381,7.68552381,7.68552381,60.00000000,60.00000000,60.00000000
5033,Na3ScI6,2.1533,8.44496922,8.44496922,8.44496922,60.00000000,60.00000000,60.00000000
5034,Cs2InAgF6,2.1889,6.54063025,6.54063025,6.54063025,60.00000000,60.00000000,60.00000000
5035,Rb2ErAuCl6,2.1579,7.59800237,7.59800237,7.59800237,60.00000000,60.00000000,60.00000000
5036,Rb2TlInBr6,2.1675,8.29472882,8.29472882,8.29472882,60.00000000,60.00000000,60.00000000
5037,Rb3GaBr6,2.169,8.21934134,8.21934134,8.21934134,60.00000000,60.00000000,60.00000000
5038,KRb2AsI6,2.1806,8.81814058,8.81814058,8.81814058,60.00000000,60.00000000,60.00000000
5039,KRb2GaBr6,2.1746,8.08178220,8.08178220,8.08178220,60.00000000,60.00000000,60.00000000
5040,CaSi4WO10,2.1854000000000005,7.59949100,7.59949100,15.52793800,90.00000000,90.00000000,90.00000000
5041,Y2Cr3(SiO4)3,2.1767999999999996,10.79961391,10.79961391,10.79961391,109.47122063,109.47122063,109.47122063
5042,Al2Se3,2.1575999999999995,6.89017909,6.89017909,7.43510623,63.43419412,63.43419412,59.58394773
5043,PaInO4,2.1853999999999996,6.56826525,6.56826525,6.56826525,132.11330141,132.11330141,70.05013839
5044,NaNO2,2.1645,3.86294000,5.31976365,5.54883534,89.79357651,86.53718233,89.44491918
5045,Na7As11O31,2.1613999999999995,11.37581500,11.39584449,16.47133029,89.65815905,89.78364277,60.15963696
5046,LiVCO4,2.171,3.18399063,9.40493801,9.37554000,89.99763855,89.99930373,88.65112979
5047,LiNO2,2.1754,3.96623087,3.96623087,3.96623087,131.70287352,100.05309557,99.21684987
5048,LiSbP(OF3)2,2.1623,6.13572100,7.62098005,8.08368785,91.35216619,104.36829148,95.19478285
5049,Li4Fe(WO4)3,2.1831000000000005,5.11933652,10.19531827,10.09545099,60.32184485,90.65949022,90.32099601
5050,Li2CeO3,2.1693,5.56470150,5.56470150,5.94952517,77.97473256,77.97473256,117.99327671
5051,Li12Fe3CoP4(CO7)4,2.1912000000000003,6.48304100,8.49718600,10.03073147,84.78621756,90.00000000,90.00000000
5052,BaO,2.1718,4.36115610,4.36115610,6.60557600,90.00000000,90.00000000,120.00000150
5053,Si2H2O3,2.1723999999999997,8.50009100,10.36392179,12.53395471,88.30971127,104.76812279,108.10654207
5054,TeH15C5NOF6,2.1588000000000003,7.06402800,9.05389700,23.10158734,86.65720575,90.00000000,90.00000000
5055,MnH4(CO3)2,2.1669,6.23223024,6.23223024,9.30703829,63.00109093,63.00109093,54.75179134
5056,Na3AsH16(SO2)4,2.1673,13.06966500,8.72972100,13.75981842,76.52643248,90.00000000,90.00000000
5057,K2PdN2(ClO2)2,2.1763000000000003,4.73235900,7.05971384,7.87766620,67.34221710,75.08665789,81.19090223
5058,CsH5N2,2.1609999999999996,5.73243400,7.04868600,10.28279800,90.00000000,90.00000000,90.00000000
5059,PmErO3,2.1803999999999997,4.26635100,4.26635100,4.26635100,90.00000000,90.00000000,90.00000000
5060,Ho3GaS6,2.1725,8.51617740,8.51617740,6.46153600,90.00000000,90.00000000,102.50357707
5061,Gd2CoTe2(SO7)2,2.1592,5.33887200,7.97825502,8.24400750,115.76767933,106.96344396,85.79889837
5062,Cs4In2S5,2.1801,8.06494900,9.91603805,11.32482976,72.35784077,70.31592410,83.97672043
5063,Cs3Tl2Cl9,2.189,9.91708401,9.91708401,9.91708445,83.82533389,83.82533389,83.82532961
5064,PrMoBrO4,2.157,7.08648600,7.56456108,11.39033871,106.12206067,106.64374850,92.44190066
5065,Re(TeCl2)2,2.1909,10.66836498,10.66836498,10.66836498,116.65611296,116.65611296,95.89644759
5066,Ta3NO6,2.158,10.64144410,10.64144410,12.04059159,60.45766621,60.45766621,21.05860419
5067,Cs3AlTe3,2.1643,14.76065000,9.27374300,12.12136115,53.52407465,90.00000000,90.00000000
5068,SmMoBrO4,2.1853000000000002,7.00344700,7.43203607,11.24542592,106.20636012,106.94855967,92.33995204
5069,SnHg2(SBr)2,2.1758,10.64253800,11.15448700,13.12235268,64.52536260,90.00000000,90.00000000
5070,Rb3Sb2Br9,2.1854999999999998,7.94563500,14.00039900,24.04423066,54.61464812,90.00000000,90.00000000
5071,GeBiNO7,2.1614,5.18486000,12.27912600,19.16602800,90.00000000,90.00000000,90.00000000
5072,HgAs2Xe5F22,2.1803,8.81741500,15.43783100,17.80814000,90.00000000,90.00000000,90.00000000
5073,Nd4GaSbS9,2.1845999999999997,10.18153380,10.18153380,13.85613800,90.00000000,90.00000000,90.87231004
5074,Sm4InSbS9,2.1754,10.12114100,10.12114100,27.87139600,90.00000000,90.00000000,90.00000000
5075,V6H2Pb4Se3O26,2.1801000000000004,21.74298600,7.24570100,7.43417367,85.05062528,90.00000000,90.00000000
5076,Zr5Si6H36C12(Br10O3)2,2.1818999999999997,10.25671248,14.18643618,23.75082536,90.00000000,90.00000000,96.98359606
5077,ZrH12N5F4,2.1786000000000003,9.16279300,9.16279300,10.85002500,90.00000000,90.00000000,90.00000000
5078,BiXeF7,2.1826999999999996,10.42309600,5.55048300,12.98087662,87.55870103,90.00000000,90.00000000
5079,ZrSO6,2.1605,5.74091500,6.91176000,11.45150400,90.00000000,90.00000000,90.00000000
5080,HgH12C12S2(NO2)2,2.1907,15.84217467,15.84217467,17.97992243,116.13909244,116.13909244,90.00000000
5081,Nb4Ag2O11,2.1668000000000003,13.04401412,13.04401412,13.04401381,27.95345320,27.95345320,27.95345045
5082,Si4Te2H44Pt(C8Cl)2,2.1648,13.09028654,13.09028654,20.96328933,84.88132319,84.88132319,30.49589007
5083,Nd4InSbS9,2.1557,10.21022300,10.21022300,28.11183200,90.00000000,90.00000000,90.00000000
5084,AgPHNO2,2.1848,7.96033200,10.09197300,11.87722721,72.96057959,90.00000000,90.00000000
5085,Cs3U2PO10,2.1889000000000003,8.03827863,8.03827863,12.59744133,69.24493011,69.24493011,62.00962052
5086,Pr4GaSbS9,2.1638,10.22667985,10.22667985,13.92757400,90.00000000,90.00000000,90.69151314
5087,NaMgP(CO3)2,2.1572999999999998,9.71509700,10.11649600,11.73342700,90.00000000,90.00000000,90.00000000
5088,Nb4Ag2O11,2.1732000000000005,6.33082154,6.33082154,13.07966799,76.15885988,76.15885988,59.04815687
5089,NaB6H8S3O7,2.1555,8.65193600,9.04013242,9.10592127,95.08152223,104.95377535,94.37181395
5090,Pr4InSbS9,2.1642,10.28256500,10.28256500,28.18766900,90.00000000,90.00000000,90.00000000
5091,RePO6,2.1734999999999998,8.51755121,8.51755121,21.11623098,87.97447188,87.97447188,61.03411985
5092,B5TeH5C,2.157,7.18705400,8.95701313,10.22613721,84.22285873,78.46579404,81.78101972
5093,CoH2(CO2)2,2.1843,9.98683500,11.41393000,18.41433697,53.10229695,90.00000000,90.00000000
5094,In2Sb2H16C4Se7N2,2.1684,11.24881930,11.24881930,18.02878244,58.89201151,58.89201151,38.38274685
5095,Ba2YbUO6,2.1708000000000003,6.18821530,6.18821530,6.18821530,60.00000000,60.00000000,60.00000000
5096,Th2N2O,2.1536,3.95462190,3.95462190,6.00053600,90.00000000,90.00000000,119.99999834
5097,Ba3UO6,2.1586000000000003,6.54454620,6.54454620,6.54454620,60.00000000,60.00000000,60.00000000
5098,Sr2YbUO6,2.1813000000000002,6.09000665,6.09000665,6.09000665,60.00000000,60.00000000,60.00000000
5099,TlHg5Br11,2.1821,10.18987566,10.18987566,6.96008156,72.31461316,72.31461316,101.21075438