,pretty_formula,bandgap,cell_length_a,cell_lentgh_b,cell_lentgh_c,cell_angle_alpha,cell_angle_beta,cell_angle_gamma
1014,NaMg30BO31,1.8796999999999997,8.50088400,8.50088400,8.55277200,90.00000000,90.00000000,90.00000000
1015,LiMg30BO31,1.8835999999999995,8.46505800,8.46505800,8.54560400,90.00000000,90.00000000,90.00000000
1016,Ba4Sm2Cd3S10,1.8973,9.39748991,9.39748991,27.02728900,90.00000000,90.00000000,154.04139987
1017,Nb2O5,1.8948,4.05615517,4.05615517,5.84511883,68.58748970,68.58748970,80.70473397
1018,SrS,1.8860000000000001,3.66843200,3.66843200,3.66843200,90.00000000,90.00000000,90.00000000
1019,Rb2S,1.8961000000000001,5.56044917,5.56044917,7.75674600,90.00000000,90.00000000,119.99999014
1020,PbS,1.9001000000000001,4.26372300,4.28059900,12.08466700,90.00000000,90.00000000,90.00000000
1021,ZrTi(PbO3)2,1.8868,4.02758000,4.02758000,8.76155400,90.00000000,90.00000000,90.00000000
1022,Ba2UCdO6,1.8841000000000006,6.19088675,6.19088675,6.19088675,60.00000000,60.00000000,60.00000000
1023,AsAuO4,1.8771,5.10762152,5.10762152,8.05310623,85.13211132,85.13211132,71.57080823
1024,CsAuCl4,1.8897,7.39649121,7.39649121,10.21881546,76.65456076,76.65456076,51.21438893
1025,Ba3SnS5,1.8785999999999996,9.46515065,9.46515065,9.46515065,126.18719355,126.18719355,79.58069295
1026,Ca2TiO4,1.8848999999999996,6.58404804,6.58404804,6.58404804,145.94720541,145.94720541,48.92518717
1027,B2(CN2)3,1.8972,5.21088100,5.25848600,8.35018100,90.00000000,90.00000000,90.00000000
1028,CaSnS3,1.8748999999999998,8.60726600,8.74571355,11.84583591,69.62833062,83.86262972,76.54816311
1029,Cs2RbAlI6,1.8888,8.87944674,8.87944674,8.87944674,60.00000000,60.00000000,60.00000000
1030,Cs2ScAuF6,1.8813,6.50383665,6.50383665,6.50383665,60.00000000,60.00000000,60.00000000
1031,Cs2YAuBr6,1.8854000000000002,8.05447515,8.05447515,8.05447515,60.00000000,60.00000000,60.00000000
1032,Na2ScCuCl6,1.9059,7.04910366,7.04910366,7.04910366,60.00000000,60.00000000,60.00000000
1033,Rb3AlI6,1.9055,8.82794956,8.82794956,8.82794956,60.00000000,60.00000000,60.00000000
1034,Cs3W2N5,1.9073000000000002,11.02398435,11.02398435,11.02398435,102.08374816,102.08374816,125.54326792
1035,KSbS2,1.9032999999999998,6.48603911,6.48603911,6.97694989,68.97965401,68.97965401,93.73826911
1036,LiPrS2,1.9053,6.96329673,6.96329673,6.96329673,131.74055786,131.74055786,70.63909747
1037,Li2MnCoO4,1.8889999999999998,5.14186563,5.14186563,10.58721184,82.84211840,82.84211840,32.49644396
1038,LiVF4,1.9056,7.56004400,7.74918100,10.95346600,90.00000000,90.00000000,90.00000000
1039,LiTiCoO4,1.8995000000000002,5.96829117,5.96829117,5.96829117,120.38451795,119.83655029,89.80931295
1040,LiAgF2,1.8911,6.56447714,6.56447714,6.56447705,26.96385951,26.96385951,26.96386771
1041,LiFeSnO4,1.9018999999999995,3.11577600,5.18555700,9.91613400,90.00000000,90.00000000,90.00000000
1042,Li5NiHO4,1.8747,8.77687200,9.03391700,10.63851600,90.00000000,90.00000000,90.00000000
1043,Li4V3Ni(PO4)4,1.896,6.07463400,4.75658600,10.42929134,89.91186395,90.00000000,90.00000000
1044,Li2VFeP2(HO5)2,1.8818999999999995,5.44924534,7.40171005,10.15677539,75.49462072,79.21752219,106.21359231
1045,Fe4OF7,1.8794,5.80026030,5.80026030,10.59134708,69.35565719,69.35565719,68.96093898
1046,Cs2CeO3,1.8938999999999997,6.89643324,7.48297826,14.61778766,90.04105002,90.02821571,117.35448368
1047,YbMoClO4,1.9027,6.76174128,6.76174128,6.97211129,77.89491391,77.89491391,62.26711127
1048,SrI2O,1.9013999999999998,4.45476100,8.83170600,13.57056900,90.00000000,90.00000000,90.00000000
1049,V2NiP2H6O13,1.8814000000000002,9.52082200,9.82418500,10.42843700,90.00000000,90.00000000,90.00000000
1050,PbWO4,1.8788,5.82745500,7.87379600,7.98070386,74.70489503,90.00000000,90.00000000
1051,NF2,1.8965,3.37951100,8.01923842,8.44176884,81.49183294,78.54604881,77.96322285
1052,FeO,1.8845,5.51263448,5.51263448,5.51263448,96.20340084,96.20340084,141.61751220
1053,Ba8CaY2U4O24,1.8876000000000004,12.39972792,12.41270385,17.63268902,90.00000000,90.00000000,90.00000000
1054,AgI,1.8795000000000002,10.35883092,10.35883092,7.88351900,90.00000000,90.00000000,120.00000590
1055,Na2UTeO7,1.8813,6.51009774,6.51009774,7.63293800,90.00000000,90.00000000,107.52148937
1056,Sr(BeN)2,1.8807999999999998,5.50992225,5.50992225,5.50992225,118.67433152,118.67433152,92.31188309
1057,KFe3H6(SO7)2,1.8753000000000002,7.29195042,7.29195042,7.29195118,61.12404566,61.12404566,61.12405060
1058,C2SeNClO2,1.9019,13.55059500,8.12231200,8.14110770,61.10294169,90.00000000,90.00000000
1059,KZnBr3O2,1.8994,14.60033100,7.07049400,8.81280234,73.36704720,90.00000000,90.00000000
1060,Cs2S5,1.8864,7.08680000,7.39383700,19.19045900,90.00000000,90.00000000,90.00000000
1061,Cs3GeSe3,1.9013,10.79025099,10.79025099,9.84645632,85.23977398,85.23977398,80.02601500
1062,CsHgBr3,1.9018,12.98808273,12.98808273,14.96308839,56.18135183,56.18135183,37.80751443
1063,Al2Ag2Bi2S3Cl8,1.901,7.01076064,7.01076064,22.79432500,90.00000000,90.00000000,120.00000605
1064,K4U3(AsO8)2,1.8985,17.55044200,7.02716000,7.19057849,81.49179961,90.00000000,90.00000000
1065,SiP4PdPbO14,1.8750999999999998,17.40823600,4.65748900,6.53496506,77.94578932,90.00000000,90.00000000
1066,MnB2H17N3,1.9057,8.46228300,9.70614600,12.03806200,90.00000000,90.00000000,90.00000000
1067,Rb3Sb2I9,1.8775,8.44735200,15.03963500,25.87042706,54.48855570,90.00000000,90.00000000
1068,Na2FeH4(SO5)2,1.8968,13.26184700,5.55047500,5.81428490,73.48837708,90.00000000,90.00000000
1069,V4Pb3O3F19,1.8897,10.40766947,10.40766947,9.29846200,90.00000000,90.00000000,119.99999662
1070,CrH6C3(S2N)3,1.9002999999999999,8.93781500,8.93781500,8.93781486,99.86345656,99.86345656,99.86345714
1071,NiH20PtC4(NO3)4,1.8916,9.13300786,9.13300786,9.13300786,133.26088265,130.91702998,70.10565341
1072,Sr5Ti9O23,1.8901000000000001,8.04211000,5.57976200,31.93135584,89.19547665,90.00000000,90.00000000
1073,CrB2(PbO2)6,1.8898000000000001,6.57327100,11.94938900,18.60945600,90.00000000,90.00000000,90.00000000
1074,Sr3Ti5O13,1.8868,5.66606487,11.83678716,31.87110988,90.00000000,90.80673971,90.00000000
1075,TbV(SeO4)2,1.8726999999999998,7.04509500,6.79133800,13.58009424,88.72386558,90.00000000,90.00000000
1076,TlV2I3O13,1.8808,9.67139390,9.67139390,9.67139390,129.67135926,114.14226031,87.28392076
1077,Ba7Ga5AgSe15,1.9040000000000001,10.22083323,10.22083323,19.02052700,90.00000000,90.00000000,119.99999500
1078,UO3,1.8789999999999996,11.30248997,11.28055596,6.97424500,72.18294124,71.84016643,35.97689234
1079,Fe2NF6,1.8727,7.26262800,7.43816700,10.20777800,90.00000000,90.00000000,90.00000000
1080,Ba2GaS4,1.8917000000000002,6.29208100,12.87008000,20.14404299,75.68642327,90.00000000,90.00000000
1081,Pr5(SiN3)3,1.8781999999999996,7.78838711,7.78838711,16.01169900,90.00000000,90.00000000,93.78336765
1082,Nb2O5,1.8986999999999998,14.81151645,14.81151645,18.06531327,55.23246139,55.23246139,14.70283526
1083,La2SbS5Br,1.8765,5.51588700,8.99205700,18.07430600,90.00000000,90.00000000,90.00000000
1084,K2H3IrNCl5,1.8962000000000003,7.04124600,10.15183900,13.80273400,90.00000000,90.00000000,90.00000000
1085,Os2Xe(O3F5)2,1.8998,7.84387000,11.83770500,13.17169100,90.00000000,90.00000000,90.00000000
1086,BaMnO3,1.8948,4.93206800,5.80473285,10.05227633,90.00022694,89.99999430,90.00000000
1087,SbPbBrO2,1.8827999999999996,7.07362690,7.07362690,5.56987900,90.00000000,90.00000000,131.97317332
1088,TmSeF,1.8829999999999996,4.04866411,4.04866411,17.65952600,90.00000000,90.00000000,120.00000176
1089,SrCoF5,1.8786,7.35619500,7.06136200,14.92272654,85.47069676,90.00000000,90.00000000
1090,Sr4SnPbO8,1.8860999999999999,4.20898500,4.20898500,12.73015400,90.00000000,90.00000000,90.00000000
1091,Sr2CrSbO6,1.8769,5.61466000,5.61490400,16.18078500,89.99943454,89.99928874,89.99956121
1092,Sr2AlSbO6,1.8987000000000007,5.55593314,5.55593314,5.55593314,60.00000000,60.00000000,60.00000000
1093,Rb3Ta2AsS11,1.8938,9.93659157,9.93659157,9.79468760,83.60113002,83.60113002,83.70509896
1094,Rb2LaNb5O15,1.8938,12.87967400,12.87967400,3.98517500,90.00000000,90.00000000,90.00000000
1095,Sr2Ca49Mo12N56O3,1.9009999999999998,10.63369400,12.44386663,16.01338568,102.52825243,95.36279047,110.07797057
1096,NaNdCoWO6,1.875,5.60945200,5.54329200,7.95563682,89.81871322,90.00000000,90.00000000
1097,Na5IO6,1.8954000000000002,5.74851467,5.74851467,5.70013228,79.59673136,79.59673136,119.35260479
1098,LuBeNF6,1.9018000000000002,5.93807100,6.49742500,7.22162333,69.48861371,90.00000000,90.00000000
1099,K3Ta2AsS11,1.8915000000000002,9.73403259,9.73403259,9.66299525,82.84427111,82.84427111,82.55610423
1100,K2SmNb5O15,1.8883999999999999,12.77141300,12.77141300,3.96380700,90.00000000,90.00000000,90.00000000
1101,K2TbNb5O15,1.8936,12.75753400,12.75753400,3.95556700,90.00000000,90.00000000,90.00000000
1102,K2NdNb5O15,1.893,12.78511700,12.78511700,3.96739000,90.00000000,90.00000000,90.00000000
1103,K2HoNb5O15,1.8767,12.73894100,12.73894100,3.95326100,90.00000000,90.00000000,90.00000000
1104,K2DyNb5O15,1.8865999999999998,12.75088500,12.75088500,3.95388800,90.00000000,90.00000000,90.00000000
1105,InGaSnO5,1.9078,3.26021900,11.05502900,12.01846322,80.94415931,90.00000000,90.00000000
1106,K2GdNb5O15,1.898,12.76103600,12.76103600,3.96058400,90.00000000,90.00000000,90.00000000
1107,Ho2MnNiO6,1.8799000000000001,5.60254000,5.25963000,9.16610052,55.73231425,90.00000000,90.00000000
1108,Cs4Rb2Fe2O5,1.8845999999999998,7.31376230,7.37749162,12.38299100,90.00064837,90.00086369,93.41105943
1109,Cd3Fe2(GeO4)3,1.9028000000000005,10.82746009,10.82746009,10.82746009,109.47122063,109.47122063,109.47122063
1110,Y2TeS2,1.9050000000000002,7.58832503,7.58832503,7.58832503,147.62440817,138.68662814,53.43986196
1111,ZnAgPO4,1.8892,8.39080600,10.29286582,10.29904956,119.86696045,90.54050729,89.74266297
1112,TiFe2Bi2PbO9,1.8905000000000003,5.65286775,5.65286775,14.18489500,90.00000000,90.00000000,119.99999704
1113,TiH20C8(NF3)2,1.8921000000000001,7.95422000,7.95919987,8.00189467,118.92934178,119.41342101,90.20485344
1114,Tb2CrSbO7,1.8891999999999998,7.29295643,7.29295643,7.29295643,120.22307859,119.37905180,90.34645678
1115,TaCu3(SeS)2,1.9047,5.61812295,5.61812295,5.61486600,90.00000000,90.00000000,91.12025734
1116,SrLaMnNbO6,1.9024999999999999,8.19854782,8.19848349,9.95611742,66.35035041,66.35015409,91.42024299
1117,Sr3(BN2)2,1.9069,7.69007300,7.69007300,7.69007300,90.00000000,90.00000000,90.00000000
1118,Sr4BrN2Cl,1.8938000000000001,3.93821000,6.81993800,7.61064966,72.61090836,90.00000000,90.00000000
1119,Sr4LaCl11,1.8831,18.37804208,18.37804208,18.37804208,164.60624636,164.60624636,21.83655573
1120,Sr5ZrTi4O15,1.9047999999999998,14.38144752,14.38144752,4.01592700,90.00000000,90.00000000,157.40348738
1121,Sr3Ca(SnO3)4,1.8788000000000005,8.14365400,5.74771000,5.80273714,89.95083773,90.00000000,90.00000000
1122,Sr3LaMn2(WO6)2,1.8765,5.75328400,5.77732132,8.16739549,90.03699915,90.05488681,90.47354945
1123,Sm6Cd(SiS7)2,1.8733,10.17745785,10.17745785,5.68068200,90.00000000,90.00000000,119.99999902
1124,Sm3SiS6Cl,1.883,5.73631200,9.94002400,9.99484051,61.35583219,90.00000000,90.00000000
1125,Sm9Al(SiS7)3,1.9034999999999997,11.56139207,11.56139207,11.56139150,97.73197938,97.73197938,97.73198106
1126,SeS7,1.9009,5.08882200,9.60727058,15.56123287,90.21616326,90.14777180,90.13728666
1127,PaInO4,1.8873999999999995,3.79980400,3.79980400,5.29375900,90.00000000,90.00000000,90.00000000
1128,NbSb3O8,1.9024,5.58615300,4.96829500,12.90708625,67.66708412,90.00000000,90.00000000
1129,NaBi3(IO2)2,1.8962999999999997,7.32330296,7.32330296,5.71098600,90.00000000,90.00000000,134.06756925
1130,NaFeSnO4,1.8798,3.12111900,9.45848900,11.15064700,90.00000000,90.00000000,90.00000000
1131,Na4Sn(GeS3)2,1.8828,6.90694338,6.90694338,7.76706885,81.56825859,81.56825859,119.56642854
1132,Na3TiFe3O8,1.8729,6.03876100,5.24322200,5.80020853,72.05179035,90.00000000,90.00000000
1133,Na2ThTi3O9,1.8921000000000001,5.50448315,5.50448315,6.72133400,90.00000000,90.00000000,119.99998981
1134,Na3Nb6Bi5O24,1.8727,5.55924400,5.61125563,16.84774708,99.50784884,89.96475753,90.34822331
1135,Na3Nb7P4O29,1.8809,16.90944198,16.90944198,13.48888405,82.40803707,82.40803707,18.57820135
1136,Na2Al3As9O28,1.8959000000000001,7.63168166,9.05199290,9.60497116,63.72228755,75.82440046,100.84282429
1137,Na2Ca4ZrNbSi4O17F,1.9053000000000004,10.46150300,7.43161700,11.07844020,69.87298117,90.00000000,90.00000000
1138,MnMoH2SeO7,1.9061000000000001,12.98600000,6.61082400,7.18715947,89.86662891,90.00000000,90.00000000
1139,LiTbS2,1.9042000000000003,6.59440189,6.59440189,6.59440146,34.67025813,34.67025813,34.67025268
1140,Li5AuO4,1.8763999999999998,5.36503115,5.36503115,4.77686826,84.35449811,84.35449811,127.13185256
1141,LiTiFeO4,1.9030000000000005,2.94836900,8.99922500,10.78537700,90.00000000,90.00000000,90.00000000
1142,Li2Cr2FeSbO8,1.8889,5.99244860,5.99244860,9.65077221,89.84632762,89.84632762,59.85031889
1143,LaTaBi2O7,1.8929,7.83336273,7.83336273,7.83336273,120.47128429,119.91422842,89.66714013
1144,LiU4As3O20,1.8901,17.98000541,17.98000541,17.98000541,156.56001464,156.56001464,33.38890091
1145,La3TaCo2O9,1.9036,5.78294500,8.03839600,18.68979546,64.61797461,90.00000000,90.00000000
1146,KCr12Si8ClO28,1.8987000000000003,9.95710004,9.95710004,9.95710004,115.97090402,115.97090402,97.13286565
1147,La9In(SiS7)3,1.8902999999999999,11.92812263,11.92812263,11.92812316,98.27430445,98.27430445,98.27430314
1148,Dy2TeS2,1.8771999999999998,7.59688087,7.59688087,7.59688087,147.84887646,138.82886092,53.17348885
1149,Dy2NbGaO7,1.8804999999999996,7.28414967,7.28414967,7.28414967,121.00028759,119.13709487,89.88865360
1150,Dy2CrSbO7,1.8942999999999994,7.28266217,7.28266217,7.28266217,120.19731010,119.52789778,90.23911573
1151,Ce4SnO10,1.8745000000000003,15.78057664,15.78057664,15.78057690,13.93847150,13.93847150,13.93846995
1152,Cd5Ge(PO6)2,1.8832000000000002,6.88569600,10.40004900,15.31513400,90.00000000,90.00000000,90.00000000
1153,CaBiIO2,1.8876999999999997,7.36643196,7.36643196,7.36643196,148.19640828,148.19640828,45.59551101
1154,Ca6V3Fe7O24,1.8754999999999997,10.93451642,10.93451642,10.93451642,109.47122063,109.47122063,109.47122063
1155,Ba3SrMg2(TeO6)2,1.8967,10.01362487,10.01362487,10.01362423,33.57422507,33.57422507,33.57422868
1156,Ba4ScTi4BiO15,1.8822999999999999,14.53013532,14.53013532,4.04014100,90.00000000,90.00000000,157.20603308
1157,Ba4Re2NiO12,1.8907000000000003,5.84614212,5.84639900,10.11032340,89.99835921,73.19248187,119.99712050
1158,Al4Zn3Cr2O12,1.8873000000000006,10.13782145,10.13782145,8.28029800,66.50495960,66.50495960,33.32929849
1159,Al2Fe(PO4)3,1.8996,5.14188000,7.17646104,15.44200572,90.15727974,90.16390646,90.16576888
1160,Ba6Gd(ReO6)3,1.8748,10.22819230,10.22819230,10.10972700,80.29700322,80.29700322,119.99282195
1161,La2MgSe4,1.8843999999999999,4.20084800,13.70759100,14.83559200,90.00000000,90.00000000,90.00000000
1162,Tm2MgS4,1.8980000000000001,7.83322286,7.83322286,7.83322286,60.00000000,60.00000000,60.00000000
1163,Sb5IO7,1.8758000000000004,13.23471600,7.06936600,13.48859730,63.94975574,90.00000000,90.00000000
1164,TiZnBi(PO4)3,1.8937,8.44805585,8.44805628,8.44805664,64.04831774,64.04831926,64.04832302
1165,MgTiBi(PO4)3,1.8866000000000005,8.40025376,8.40025316,8.40025381,64.63108249,64.63108687,64.63109322
1166,WO3,1.9032999999999998,11.99931824,12.09348762,11.66963241,93.60588331,88.52293071,78.74433900
1167,SiO2,1.9065000000000003,11.42068144,11.60779859,12.38003334,94.95090489,91.35904044,95.61624679
1168,V2O5,1.8967,13.01216422,11.84205109,11.92219025,83.15810135,84.52736388,89.20855951
1169,MgO,1.8753000000000002,10.10282720,10.84726750,9.16935452,95.00821533,91.86072453,84.00621637
1170,V2O5,1.8996,11.75710764,11.61643109,11.96821702,85.62741843,91.33987853,81.42750815
1171,MgO,1.8825999999999996,9.33079402,10.56575313,9.98181523,97.46439409,89.44843676,89.08072241
1172,ScBN2,1.8962999999999997,3.35490763,3.35492624,9.82435620,90.00000000,90.00000000,119.99981638
1173,Mg4CN4,1.9059,10.22808240,3.20187970,12.59012280,90.00000000,90.00000000,90.00000000
1174,Ga2(CN2)3,1.8736,9.89654272,5.68699119,28.00795259,89.99999825,160.62367488,73.30230160
1175,Mg16Si8HO32,1.9011999999999998,6.06211992,9.61477848,10.33273617,89.98212212,90.00581947,90.00258377
1176,MgV(Si2O5)2,1.8761999999999999,7.33714300,7.33714300,14.97201900,90.00000000,90.00000000,90.00000000
1177,Be3V2(SiO4)3,1.8776000000000002,7.55190800,8.05181200,15.93215832,60.07668986,90.00000000,90.00000000
1178,Ni(HO)2,1.8749,3.14699725,5.44784697,6.72049809,92.40588359,93.77163149,90.06927764
1179,LiVOF3,1.8893,5.85539997,7.35395446,8.03601909,81.03106454,70.57981046,65.81998672
1180,CoBi6(SO8)2,1.9022999999999994,5.66492239,11.74040291,22.78899840,84.84409772,90.04502114,90.00284846
1181,Mg2VWO6,1.8851000000000004,5.17557641,7.63410928,5.59915311,94.84222299,90.26563826,90.52582839
1182,LiNbFeO4,1.907,6.27906678,6.23841683,10.73910315,89.39106042,73.03886335,59.73495196
1183,V2CrO6,1.8738000000000001,5.51678619,6.95520662,6.94837379,97.83863884,74.54760203,105.48857418
1184,LiV3OF11,1.8749,6.29860508,7.73333072,10.65421072,71.54379191,103.65218560,110.09894423
1185,Ge3N4,1.8956000000000004,8.12041193,8.12041193,3.11005600,90.00000000,90.00000000,119.99999943
1186,NaTl2RhF6,1.8825000000000003,6.13232416,6.13232416,6.13232416,60.00000000,60.00000000,60.00000000
1187,K4Nb8Si(P2O17)2,1.8860999999999999,10.78115900,10.78115900,6.52508000,90.00000000,90.00000000,90.00000000
1188,Zn3(AsO4)2,1.9057,9.01481000,6.72441500,11.14281054,86.32609431,90.00000000,90.00000000
1189,AlCr(WO4)2,1.8873000000000006,5.10817464,5.54775635,9.15940535,90.18658696,90.45434166,90.90685562
1190,LaZnFeMoO6,1.8952,5.53464777,7.77597074,5.96970040,89.86284095,90.02479067,89.42667366
1191,Ta2Zn2CrO8,1.8826999999999998,6.02131109,10.14364353,10.57220535,90.88096980,91.07795283,104.41162786
1192,Sr3(AlN2)2,1.904,5.94601900,9.63888600,10.07321500,90.00000000,90.00000000,90.00000000
1193,Ba2CrO4,1.891,6.00512888,7.73476756,10.71257563,90.00000000,90.00000000,90.00000000
1194,Cd4SiS6,1.903,7.24483721,7.24483721,12.61519497,72.21117317,72.21117317,59.46898064
1195,KAlTe2,1.8939999999999997,8.46451842,8.46451842,16.82087453,82.76304097,82.76304097,89.95956483
1196,KPSe6,1.8857999999999997,7.03671000,11.74066000,12.06590500,90.00000000,90.00000000,90.00000000
1197,K3V3O8,1.8899,5.75550800,9.50257184,9.50257184,63.27367010,72.37177049,72.37177049
1198,Na4CrO4,1.8904,5.76200000,5.76940904,8.74029886,81.43625074,71.35358096,68.39711739
1199,VBO3,1.8733,5.63581820,5.63581880,5.63581899,49.13855829,49.13854939,49.13855950
1200,LiMnVO4,1.9029000000000003,5.30230089,6.42921100,5.30230026,90.00000000,112.92650721,90.00000000
1201,PrCrO3,1.8799000000000001,3.88678800,3.88678800,3.88678800,90.00000000,90.00000000,90.00000000
1202,BaV2(CoO4)2,1.8963999999999999,9.91269432,9.91269432,9.91269432,100.61980302,100.61980302,129.15480738
1203,InGaS3,1.8944,10.08237472,10.08237472,6.23336500,90.00000000,90.00000000,158.23496641
1204,TiFe2O5,1.8775,3.79520449,5.32951972,10.02789855,90.00000000,90.00000000,110.85811786
1205,CeO2,1.8796999999999997,3.86607097,3.86607097,3.86607097,60.00000000,60.00000000,60.00000000
1206,NdMnO3,1.8980000000000001,5.50227800,5.92061500,7.66844700,90.00000000,90.00000000,90.00000000
1207,Ni(SbO2)2,1.9065000000000003,6.05663000,8.47757700,8.47757700,90.00000000,90.00000000,90.00000000
1208,Sr(FeO2)2,1.8881999999999999,11.03096100,8.24690600,12.24303895,49.73695093,90.00000000,90.00000000
1209,Na3Li3Co2F12,1.8825999999999998,10.84209592,10.84209592,10.84209592,109.47122063,109.47122063,109.47122063
1210,Na5NiO4,1.8963,5.98378900,10.34006900,18.05111700,90.00000000,90.00000000,90.00000000
1211,HgI,1.8859,6.95197808,6.95197808,6.95197808,136.15979226,136.15979226,63.73339043
1212,SbO2,1.9048000000000007,4.90657800,5.55192900,11.93748400,90.00000000,90.00000000,90.00000000
1213,CsCu2I3,1.8996000000000004,8.68275689,8.68275689,6.08358900,90.00000000,90.00000000,105.61393589
1214,BiSI,1.8825999999999996,4.20810000,8.88705100,11.07134200,90.00000000,90.00000000,90.00000000