,pretty_formula,bandgap,cell_length_a,cell_lentgh_b,cell_lentgh_c,cell_angle_alpha,cell_angle_beta,cell_angle_gamma
5719,Tl8Ge5O14,2.218,14.88213845,14.88213845,14.88213861,38.32899555,38.32899555,38.32899123
5720,Cd3(PO4)2,2.2077999999999998,9.74361361,9.74361361,7.76665200,90.00000000,90.00000000,106.90114650
5721,Rb2SnO2,2.2261,5.88714300,7.64196100,11.43767100,90.00000000,90.00000000,90.00000000
5722,MnCr2O4,2.2026,6.06931470,6.08040954,6.06931786,120.06048032,60.12091798,89.99995762
5723,HgTeO3,2.1965,6.31405200,7.62245903,7.68384242,94.18603568,113.69548555,92.18243187
5724,CsGeI3,2.1992,6.09914297,6.09914297,6.09914324,88.46020556,88.46020556,88.46019643
5725,KRbS,2.2218999999999998,5.05139400,8.35496900,9.55670700,90.00000000,90.00000000,90.00000000
5726,Na7Au5S6,2.2157999999999998,7.14545900,10.62679100,22.67033600,90.00000000,90.00000000,90.00000000
5727,Na2HgS2,2.2077999999999998,7.48683200,7.54336700,18.35275900,90.00000000,90.00000000,90.00000000
5728,ZrSnCl6,2.2201,6.68519600,11.97743900,18.83345114,88.04966651,90.00000000,90.00000000
5729,V3(Bi3O8)2,2.2173,5.58064000,15.23604900,17.47726300,90.00000000,90.00000000,90.00000000
5730,Cs2HfI6,2.2117,8.48849588,8.48849588,8.48849588,60.00000000,60.00000000,60.00000000
5731,LaBN2,2.2253999999999996,6.64884600,6.94939272,7.82097506,105.90805716,90.58451540,116.14807142
5732,TaTeBr9,2.2297,12.50873400,7.31639600,10.47679150,76.31484244,90.00000000,90.00000000
5733,Ta4Mn11O21,2.2064999999999997,5.45070252,5.45070252,34.36120200,90.00000000,90.00000000,120.00000630
5734,Ca3(AlN2)2,2.1935000000000002,5.85633600,10.75185600,15.91666800,90.00000000,90.00000000,90.00000000
5735,Cs4SiSe4,2.2150999999999996,14.43525100,14.43525100,14.43525100,90.00000000,90.00000000,90.00000000
5736,Hg2Mo2O7,2.2203,3.99525885,6.19355025,14.53153651,98.87313153,90.00000000,90.00000000
5737,LiMgN,2.2078,3.51740500,5.03510200,7.20303400,90.00000000,90.00000000,90.00000000
5738,Y2MoO6,2.2209999999999996,9.99010395,9.99010395,5.42079556,74.86032722,74.86032722,67.99826727
5739,Na4(BSe)9,2.2099,16.49581400,11.14408500,11.70885209,61.94860753,90.00000000,90.00000000
5740,CrOF3,2.2005,5.33186800,5.33186800,9.11918400,90.00000000,90.00000000,90.00000000
5741,BaCeO3,2.229,6.28692200,6.30357100,8.88501000,90.00000000,90.00000000,90.00000000
5742,LiV(PO3)4,2.219,10.41939092,10.41939092,5.24603725,81.60291093,81.60291093,71.00528073
5743,BaCeO3,2.2231,6.27870136,6.27870136,6.27870136,120.05420989,119.53397785,90.35759819
5744,Ba(LaS2)2,2.1988000000000003,7.76535075,7.76535075,7.76535075,109.28662957,109.28662957,109.84103691
5745,CsTaN2,2.2255,6.29363001,6.29363001,6.29363001,120.08739971,120.08739971,89.84868580
5746,Li6Br3N,2.2182,5.82415092,5.82415092,6.81685321,66.21533983,66.21533983,87.88700361
5747,SmPS4,2.222,12.37685850,12.37685850,12.37685850,127.49203593,127.49203593,77.44936695
5748,Sr3UO6,2.2159999999999997,6.28418800,6.05300600,10.58074723,55.43847029,90.00000000,90.00000000
5749,LaGaS3,2.2014000000000005,10.61392800,10.43698900,12.94293648,81.15577526,90.00000000,90.00000000
5750,BaCeO3,2.2291,6.25848883,6.25848883,6.25848854,60.59526546,60.59526546,60.59526044
5751,SeCl,2.2181,15.06778900,5.25621200,7.52997260,83.35863994,90.00000000,90.00000000
5752,VP3(HO5)2,2.2075000000000005,8.98563100,7.56760500,12.54663002,67.55712515,90.00000000,90.00000000
5753,MnVH4O2F5,2.2283,6.63685184,7.55549490,7.55621979,61.98880178,116.05738696,116.04619358
5754,Li5ReO6,2.2156000000000002,5.09908755,5.09908755,5.08413575,80.04898731,80.04898731,119.75194306
5755,SrSm2Nb2O9,2.2232,12.95737909,12.95737909,5.66322500,90.00000000,90.00000000,155.01436766
5756,Er2TiO5,2.2106,7.38853199,7.38853199,17.68892712,89.53947370,89.53947370,58.70657702
5757,Fe2(SO4)3,2.2129,8.66209100,8.44665100,14.49231209,54.95902220,90.00000000,90.00000000
5758,P4S3I2,2.2079,7.76392600,7.81320156,21.77082479,85.37884938,87.94264894,89.29493890
5759,Rb4(BSe)9,2.1943,10.60631800,10.76849700,11.14268116,91.85431046,104.15181237,109.59384260
5760,CoP2(H8O5)2,2.2119,12.74267473,12.74267473,12.74267473,132.81925832,132.81925832,68.93813476
5761,KV(SO4)2,2.2182000000000004,4.88930814,13.07442732,11.09591816,88.58154650,102.71700196,100.76906150
5762,Co3C2(SeO5)2,2.2057,6.63048769,9.30128831,7.83375004,82.86268371,64.97618988,90.00813908
5763,SrLiCoF6,2.1993,8.82581200,5.37426500,10.36527885,87.36543827,90.00000000,90.00000000
5764,Sr4Al6CrO16,2.1944,9.58658300,13.44389900,13.47741100,90.00000000,90.00000000,90.00000000
5765,Hg2Mo2O7,2.2049,7.20598000,7.33597540,8.36910536,64.72746159,67.20498132,66.22225502
5766,Li5ReO6,2.2249,5.10430183,5.10430183,14.32822000,90.00000000,90.00000000,119.99999775
5767,K2SrV3O9,2.1927000000000003,5.50696400,10.43427300,16.37073100,90.00000000,90.00000000,90.00000000
5768,Ta2Cd2O7,2.2295,7.43834190,7.43834190,7.43834190,60.00000000,60.00000000,60.00000000
5769,KGeAuS3,2.2108,11.49870900,10.79969200,12.15218901,60.25490233,90.00000000,90.00000000
5770,Hg3PO4,2.2241,8.36854200,8.07624200,10.22677340,61.20699190,90.00000000,90.00000000
5771,Li2ZnSnS4,2.2076000000000002,6.79705000,6.45917600,10.31087305,51.10778504,90.00000000,90.00000000
5772,H6C3SN3O2F3,2.2113,8.02926900,8.99585800,12.23740200,90.00000000,90.00000000,90.00000000
5773,KC(NO2)3,2.1937,9.38823064,9.38823064,9.38823064,103.41750413,103.41750413,122.40563555
5774,ZnAs2C6S12N12(OF2)6,2.2302,12.13840467,12.13840467,6.86264600,90.00000000,90.00000000,120.00000366
5775,Ti2Fe(PO5)2,2.2059999999999995,7.45698860,7.50955300,13.04491130,90.00015050,89.78874989,89.99943470
5776,CaBiCO4F,2.2248,5.40911100,5.42051900,13.82632900,90.00000000,90.00000000,90.00000000
5777,Tl3Ga9S13O2,2.2101,9.75931413,9.75931413,7.50932400,90.00000000,90.00000000,120.00000090
5778,KSb2PO8,2.2135,7.21905541,7.21905541,15.25878583,84.80083531,84.80083531,59.78056205
5779,K2UMo(IO6)2,2.1943,7.40130800,11.54673100,16.15014884,72.62390515,90.00000000,90.00000000
5780,S,2.1919,8.60580302,8.60580302,9.18514236,77.77581544,77.77581544,78.79511025
5781,MgUB2O7,2.2225,7.39399200,8.02298800,9.87627700,90.00000000,90.00000000,90.00000000
5782,Ba2CaUO6,2.1978999999999997,6.19140100,6.22773100,10.72007410,54.65312031,90.00000000,90.00000000
5783,K2Ce(Si2O5)3,2.2231,9.96865229,9.96865229,12.01320511,52.99235242,52.99235242,52.62659996
5784,K4Na2TeO6,2.1936,10.06244600,6.76621700,7.33783947,57.26147277,90.00000000,90.00000000
5785,Li2CaTa2O7,2.2013,9.72038430,9.72038430,9.72038430,156.52319164,156.52319164,33.44213654
5786,Na2SrV3O9,2.2169999999999996,15.21248000,5.51257400,10.25788011,82.25751790,90.00000000,90.00000000
5787,K6U2Mo4O21,2.2026,7.97543700,8.09593158,10.58581339,71.42570299,84.16289067,80.25290819
5788,KFeF4,2.2201,6.50333095,6.50333095,7.75559600,90.00000000,90.00000000,144.20525512
5789,ZnAgPS4,2.2054000000000005,6.18035100,7.66490900,12.73057900,90.00000000,90.00000000,90.00000000
5790,K2Hg2SCl4O3,2.2289,6.11676100,9.79884900,10.42896750,69.52138002,90.00000000,90.00000000
5791,BaSrTa2O7,2.1937999999999995,11.18256959,11.18256959,11.18256959,159.23985890,138.58579209,46.76285573
5792,Li2MnSiO4,2.2157,5.04872200,5.44145500,12.75411500,89.99784783,90.00022131,90.00045862
5793,RbMgF3,2.2028,6.90687593,6.90687593,14.35836500,90.00000000,90.00000000,119.99999936
5794,K3Na2LiTeO6,2.2125999999999997,7.64216596,7.64216596,6.88720157,87.70050657,87.70050657,104.03164419
5795,NbSe2SN2ClF6,2.1919,8.54365700,10.67769700,13.71642766,60.75704191,90.00000000,90.00000000
5796,Na4UC3O11,2.1944,9.42685200,9.43660820,13.21495495,90.22810492,90.42495229,119.94250523
5797,AsSeS2N2ClF6,2.2257,19.99068700,9.54553600,12.49592628,57.60320467,90.00000000,90.00000000
5798,ZrTlCdF7,2.2066,6.64345595,6.64345595,8.65134500,90.00000000,90.00000000,116.98727905
5799,Ba8B5N10F,2.2188,4.25956400,21.14171111,21.22529592,91.73286455,90.01587523,93.10959791
5800,CsLuS2,2.2054000000000005,8.34884542,8.34884542,8.34884547,27.92501260,27.92501260,27.92501296
5801,Co3Bi(CO)9,2.2249,11.28500524,11.28500524,7.62511300,90.00000000,90.00000000,119.99999554
5802,KHoCoSi2O7,2.2007,6.50545634,6.50545634,8.41453339,75.31471687,75.31471687,100.76741777
5803,Co6Te3(ClO6)2,2.2157000000000004,8.52094700,8.52094700,18.73429800,90.00000000,90.00000000,90.00000000
5804,CsAgCl2,2.2289999999999996,5.13585400,5.13585400,10.00523100,90.00000000,90.00000000,90.00000000
5805,AgI,2.2061,4.58910300,4.58910300,6.67318300,90.00000000,90.00000000,90.00000000
5806,RbGeI3,2.1997999999999998,4.59912900,10.41364600,17.19098000,90.00000000,90.00000000,90.00000000
5807,La3CBr5,2.2304,9.05576626,9.05576626,14.68950144,76.71661230,76.71661230,74.69839922
5808,SbI3,2.2167000000000003,11.71589500,7.91228200,8.87492002,70.63412656,90.00000000,90.00000000
5809,Ba4W(N2Cl)2,2.2076000000000002,6.24006100,8.56835900,10.91093525,81.17073882,90.00000000,90.00000000
5810,TaH20C6N3Cl4,2.1936999999999998,18.47084800,8.88406300,11.60909774,59.45828805,90.00000000,90.00000000
5811,SbXeOF9,2.2201000000000004,8.88966800,10.02117182,10.48635833,109.59428199,93.42036764,103.76009400
5812,Cs2U(SiO4)2,2.2215000000000003,13.71619737,13.71619737,13.71619737,111.98934019,110.97838305,105.51854243
5813,RbCuC2,2.222,4.54133700,4.54133700,4.94491400,90.00000000,90.00000000,90.00000000
5814,K3AlH6,2.2258999999999998,3.23851200,13.08575900,15.21153100,90.00000000,90.00000000,90.00000000
5815,Li2Fe3(P2O7)2,2.2188,9.03612900,7.83607100,9.17762533,70.90641020,90.00000000,90.00000000
5816,Cs2PtS6(O3F)6,2.2137,9.36696642,9.36696642,7.91688400,90.00000000,90.00000000,120.00000298
5817,MoH4O5,2.2107,8.24561800,4.31470000,6.45686881,78.64307181,90.00000000,90.00000000
5818,Sn3(HO2)2,2.2085999999999997,8.38189501,8.38189501,9.63485360,86.57037401,86.57037401,91.08526221
5819,TeHO3,2.2164,8.34849800,4.95951600,11.71524491,88.80759974,90.00000000,90.00000000
5820,RuC3SeO3,2.2041,9.02854520,9.02854520,9.02854520,109.47122063,109.47122063,109.47122063
5821,CSeN,2.1989,5.08312400,6.53570000,15.70250600,90.00000000,90.00000000,90.00000000
5822,As2S3,2.1971,11.00697900,4.60064400,12.25978562,68.26478606,90.00000000,90.00000000
5823,UTl2(MoO5)2,2.2166,11.16030500,14.23821300,14.24364900,90.00000000,90.00000000,90.00000000
5824,RbCr4BiO14,2.2292,17.23711700,8.41931000,8.92000759,88.46484957,90.00000000,90.00000000
5825,MoP4C5S3O5,2.1966,35.34706100,6.85523600,12.74128963,82.71408560,90.00000000,90.00000000
5826,C10F3,2.1935,11.42793209,11.42793209,19.47539479,63.94052606,63.94052606,58.55292647
5827,KICl4,2.2088,13.89979900,5.09325300,13.39712688,75.88497267,90.00000000,90.00000000
5828,Na2Ti9O19,2.2282,6.43425811,6.43425811,15.79824087,75.93771797,75.93771797,34.43458655
5829,SeBr4,2.2103,10.76156417,10.76156417,31.50138100,90.00000000,90.00000000,120.00000102
5830,Fe6Ge2(CO)23,2.194,9.24850600,13.94548600,14.60210076,67.31817260,83.11137585,82.78183983
5831,Tl4Mo(CN)8,2.2095000000000002,15.92875973,15.92875973,16.23209891,60.15048961,60.15048961,26.91613802
5832,HgC2(SN)2,2.1932,5.90267589,5.90267589,6.57234543,86.00682800,86.00682800,40.79430783
5833,NbTeCl9,2.2169,11.81085462,11.81085462,20.07569989,73.54070099,73.54070099,32.79899974
5834,Sn3(P2O7)2,2.2258,5.67278300,7.05285786,8.81792909,99.42935355,87.45515310,112.47130357
5835,Ho2Zr8O19,2.2126,3.63842000,3.63842000,25.69179000,90.00000000,90.00000000,90.00000000
5836,CuAs2Pb6Cl7O6,2.2101,8.20846732,8.20846732,8.20846716,75.58999187,75.58999187,75.58999123
5837,Ca5Al12Si12(AgO24)2,2.194,12.17452000,12.18118761,12.92924780,89.52801357,89.46363170,89.80216500
5838,CuW3Br7,2.1983,10.14067900,15.41713000,16.29092800,90.00000000,90.00000000,90.00000000
5839,TeS7Br2,2.2268,9.76024600,12.01441400,13.71162500,90.00000000,90.00000000,90.00000000
5840,LiNbP4O13,2.229,8.07218100,10.54274141,14.37698536,107.47348612,98.19282463,99.36092767
5841,MgC2S2(OF3)2,2.2095,4.60890900,4.69012212,20.34447480,90.12276674,96.18108207,115.41682227
5842,Pr16Si16N27Cl3O14,2.2197999999999998,10.52040600,10.52770698,20.98953349,90.26401976,90.37072462,90.20741499
5843,Ba3LiTi5Nb3O21,2.1934000000000005,9.24185800,9.27432272,11.67655065,89.85954771,89.85190439,60.38836304
5844,MnAl2Sb2(PO4)6,2.2079000000000004,8.55371100,8.62729900,12.13833167,89.38834031,90.00000000,90.00000000
5845,RbCa(H2N)3,2.2163,7.05899984,7.05899984,6.67904466,79.39460581,79.39460581,116.95462998
5846,UH12C4SN2O9,2.208,11.22127929,11.22127929,8.56763356,82.78736077,82.78736077,36.32864648
5847,K3Sc(HO)6,2.2169,7.80253820,7.80253820,8.56113972,89.11447943,89.11447943,105.18166316
5848,Mn2SnC9BrO9,2.198,12.81590000,8.89623100,15.21604895,82.66994140,90.00000000,90.00000000
5849,KAuS,2.2071,5.04942226,5.04942226,7.15215300,90.00000000,90.00000000,101.36933521
5850,H2Ru3C8SO8,2.2268,11.52851000,12.81557388,19.16986584,87.10266037,107.38521089,116.23677398
5851,H21OsC9NO7,2.2031,12.75175300,9.37846800,14.88062235,58.59004629,90.00000000,90.00000000
5852,KCa(H2N)3,2.1995,11.87149400,6.61162000,6.68393360,73.44445205,90.00000000,90.00000000
5853,NaY3SiS7,2.2048999999999994,9.98512533,9.98512533,5.75609700,90.00000000,90.00000000,119.99999555
5854,Er3GaS6,2.1932,8.47799217,8.47799217,6.42891100,90.00000000,90.00000000,102.43140896
5855,SmH12(NO5)3,2.2176,7.18383000,9.94094133,11.95611891,105.89065467,97.27276869,110.13724716
5856,GdH18(IO3)3,2.214,8.16604300,9.04909100,11.69050600,90.00000000,90.00000000,90.00000000
5857,Na4Co3P4(H3O4)6,2.2063,9.25665900,7.42932700,15.29639004,84.48507193,90.00000000,90.00000000
5858,Cr2Hg2H2O9,2.2271,6.59140315,6.59140315,13.51529886,72.78458591,72.78458591,47.69890420
5859,KSnO2,2.2088,6.74056100,6.74483987,7.54040506,95.94524851,116.12453582,102.76737730
5860,Li2VSi4O11,2.2167000000000003,7.26223886,7.26223886,8.22152524,81.25358230,81.25358230,83.86892704
5861,Ba3(ClO)2,2.1949,6.42754900,10.72777100,13.20991700,90.00000000,90.00000000,90.00000000
5862,VOF2,2.2187,3.73186612,9.67251416,6.17027439,89.27706622,90.01123524,89.97178432
5863,Li4Ni3O3F4,2.1958,14.67827860,14.67827860,14.67827860,168.49522376,168.49522376,16.29778055
5864,LiVP3HO10,2.2008,6.39796254,6.39796254,6.35060402,72.44509693,72.44509693,85.33102069
5865,LiVPO5,2.2085,4.88363200,6.21693700,8.67342355,47.39215584,90.00000000,90.00000000
5866,LiFe3OF5,2.2226999999999997,5.94209214,5.94209214,7.60411402,71.77959841,71.77959841,72.92356664
5867,Li2Ni3O3F2,2.2241999999999997,10.70394096,10.70394096,10.70394096,164.13937831,164.13937831,22.50311305
5868,Li3BiS3,2.2212,6.84450900,7.82022000,10.43582500,90.00000000,90.00000000,90.00000000
5869,Mg3Fe2O5,2.1937000000000006,5.30501795,5.30913080,7.99251847,71.64722046,75.84492425,98.89508358
5870,Li3Ni2O2F3,2.2142,2.94037486,10.59643018,5.88074830,97.97515337,90.00000000,82.02484663
5871,La2Ti3O9,2.2284999999999995,7.93799924,7.93799924,7.93799924,109.47122063,109.47122063,109.47122063
5872,LiVCoO4,2.1929,4.94942800,6.07035100,10.56003000,90.00000000,90.00000000,90.00000000
5873,Li2CrP2O7,2.1978000000000004,5.28479978,7.16475228,8.59133005,90.00719286,89.97900900,110.14244847
5874,LiVF4,2.2272,5.48454525,5.48454525,5.49905008,62.21606461,62.21606461,33.10842471
5875,BaTeO4,2.2055,5.14830400,6.01059100,13.83726600,90.00000000,90.00000000,90.00000000
5876,LiVF4,2.1951,5.64252762,5.64252762,5.64252762,107.55813695,107.55813695,113.36912447
5877,BiSbO3,2.1974,5.97899072,5.97899072,5.97899023,64.72337449,64.72337449,64.72337334
5878,Li2VF6,2.2041999999999997,8.40838317,8.40838317,5.61415600,90.00000000,90.00000000,141.45194514
5879,Rb2Be2O3,2.2055,5.40352900,7.78548700,10.96467900,90.00000000,90.00000000,90.00000000
5880,Li3Fe4(OF3)3,2.2001,5.92415700,5.99293216,6.08094926,99.71510315,99.85840489,99.62458321
5881,LiAlCoO3,2.1967999999999996,5.84546781,5.89276617,8.99357268,71.11357451,91.52681266,119.94271466
5882,Li4Cr(WO4)3,2.2291,8.63672100,5.02265400,5.14736494,89.62382213,90.00000000,90.00000000
5883,VBO4,2.2062,5.04700500,5.03627000,11.39743537,70.09006049,90.00000000,90.00000000
5884,LiVFeO4,2.2011,5.23849285,6.37904700,5.23858055,89.99765512,67.98175205,89.99753333
5885,K2Sr2O3,2.2079,7.15990100,7.13227500,7.16104048,61.26945532,90.00000000,90.00000000
5886,Rb3YO3,2.203,7.40060200,8.01242100,11.79655777,86.08928637,90.00000000,90.00000000
5887,Ta3(OF)5,2.2277,12.81991983,12.81991983,12.81991983,162.31726189,161.98439134,25.34784957
5888,BaLi2NiO3,2.2099,6.90857400,7.14629604,8.01122303,90.01098696,89.99829779,90.00070865
5889,Ba3(BrO)2,2.2005000000000003,6.47916700,11.05707300,13.79738200,90.00000000,90.00000000,90.00000000
5890,Cs3ErO3,2.2302,7.59831074,7.59831074,7.63076953,83.97567282,83.97567282,116.33012335
5891,LiVSiO4,2.2075,5.43202601,8.21504026,8.49752284,106.08394248,89.99677101,89.99433423
5892,VF4,2.2223,4.80773600,5.26558800,5.62877700,90.00000000,90.00000000,90.00000000
5893,Li2MnCr(PO4)2,2.2097,4.78364040,10.42248987,6.25838500,89.99979976,89.99990503,88.53149448
5894,LiPWO5,2.2003,7.09787700,7.46169314,8.13231515,89.67082537,92.38234979,115.90471277
5895,FeBi25O39,2.2202,8.97004700,8.97143979,14.61159603,90.18273982,90.08104058,109.56518163
5896,Li3MnPO5,2.2055000000000002,5.03864900,5.50724000,16.03113100,90.00000000,90.00000000,90.00000000
5897,LiFeCO4,2.2183,5.44823200,6.61236900,10.53650727,81.91013847,90.00000000,90.00000000
5898,Li2VP3O10,2.2047999999999996,8.01799822,8.01799822,9.71503301,57.47247002,57.47247002,53.19706593
5899,V2NiH6(NO3)2,2.2079,5.65358400,11.13952000,12.29820800,90.00000000,90.00000000,90.00000000
5900,LiVP2O7,2.2123999999999997,8.23185600,5.22759400,13.94990368,71.05356228,90.00000000,90.00000000
5901,UH12S2O15,2.203,6.95785298,6.95785298,14.85050497,77.25377098,77.25377098,68.18166919
5902,LiFe(PO3)4,2.2304,9.17080500,6.84593600,7.19514740,84.97332837,90.00000000,90.00000000
5903,LiNi3O3F,2.1997,2.96236100,2.96236100,8.52389500,90.00000000,90.00000000,90.00000000
5904,Li3Fe2(PO4)3,2.2005999999999997,9.78202872,9.78202872,9.78082705,86.55111142,86.55111142,86.45219921
5905,LiVF5,2.2276000000000002,17.84744600,5.49013100,9.57553187,54.95171306,90.00000000,90.00000000
5906,Li2Fe3(SiO4)2,2.2295999999999996,5.06315700,8.94267978,13.44848456,108.48354840,99.31954209,90.96058935
5907,Li2Fe2SiO6,2.2246,15.72518046,11.64850566,11.59233299,85.15955456,47.57092802,47.26951742
5908,LiNiOF,2.1986,2.95292200,2.95292200,12.63850200,90.00000000,90.00000000,90.00000000
5909,Li2VCr(P2O7)2,2.2008,8.22076000,7.02351800,9.73732556,71.26683092,90.00000000,90.00000000
5910,Li7V(O2F)2,2.2096999999999998,5.53262605,9.91042776,10.43265666,105.65815364,91.57916032,74.77344644
5911,Nb3O7F,2.2294,3.88590600,10.52278200,16.02879100,90.00000000,90.00000000,90.00000000
5912,VOF3,2.2058,5.64757617,5.64757617,4.96826435,88.46769489,88.46769489,63.01538688
5913,Li8Co(O2F)2,2.2083999999999997,5.61543372,5.61543372,10.84689200,90.00000000,90.00000000,119.32563974
5914,VOF3,2.2173000000000003,4.85559400,5.11303000,11.79443400,90.00000000,90.00000000,90.00000000
5915,Li3Co13O5F19,2.2255000000000003,6.12616400,6.15756448,12.24860456,91.15063837,91.14042395,91.13516551
5916,LiVOF3,2.222,5.11670400,5.38249300,12.35354758,71.54068694,90.00000000,90.00000000
5917,Li3MnFeCo(PO4)3,2.2304,10.41749838,6.10044500,14.31565604,90.00000000,89.76193975,90.00000000
5918,Li3Cr(CO3)3,2.1965,6.01075608,6.01075608,9.48975600,90.00000000,90.00000000,107.74516988
5919,LiNi7O7F,2.2198,2.98097900,5.19270700,9.89749973,80.50222823,90.00000000,90.00000000
5920,Na5GaO4,2.2018,6.00504900,10.45271400,18.17311000,90.00000000,90.00000000,90.00000000
5921,Al15Fe9O32,2.2085999999999997,5.85238555,5.85238555,19.30884358,81.63536319,81.63536319,59.55940626
5922,TiO2,2.2272000000000003,7.28678543,7.28678543,4.78941953,88.10890871,88.10890871,23.61396343
5923,Li3NiPCO7,2.1938,6.39882900,8.35760113,9.93020423,85.34026217,89.85884627,89.64421631
5924,Sn4P2O9,2.2195,7.25286700,9.73016300,13.69884800,90.00000000,90.00000000,90.00000000
5925,Li10Ti11Nb6O42,2.1919000000000004,5.17763797,5.17763797,33.00673600,90.00000000,90.00000000,119.99999956
5926,LiVF5,2.2184999999999997,6.22491400,7.55559200,7.93424200,90.00000000,90.00000000,90.00000000