,pretty_formula,bandgap,cell_length_a,cell_lentgh_b,cell_lentgh_c,cell_angle_alpha,cell_angle_beta,cell_angle_gamma
1418,V2OF5,1.904,4.63930800,8.47752193,8.54404088,60.75596034,89.67454583,89.43723329
1419,Li3Fe4(BO3)4,1.8891000000000002,5.23972100,9.02723822,10.25711474,90.29004075,91.50471079,90.01276379
1420,LiFe2(BO3)2,1.8923999999999999,9.04158200,5.28525800,11.20364009,64.09151776,90.00000000,90.00000000
1421,LiV(CO3)2,1.8898,7.42650220,4.76125300,6.20540092,89.99990203,107.63724864,89.99988695
1422,Ga2CoO4,1.9040000000000004,5.97756463,5.97756400,10.35344625,90.00000000,106.77865173,60.00000347
1423,Li2V(SiO3)2,1.8930999999999996,7.17623400,10.14003800,10.14694500,90.00000000,90.00000000,90.00000000
1424,MgV3O8,1.9029000000000003,6.83340120,6.83340120,13.95579085,81.44545130,81.44545130,78.98429535
1425,Li5BiS4,1.8901,11.40879900,11.79332400,11.99537200,90.00000000,90.00000000,90.00000000
1426,Sr2FeCO3F5,1.8846,8.94766300,5.61221300,13.93136354,74.63683185,90.00000000,90.00000000
1427,Li4TiS4,1.8894000000000002,7.22643400,7.23531800,13.04466746,77.17911978,90.00000000,90.00000000
1428,LiVF5,1.8981999999999999,6.76892700,7.31356800,7.63146704,89.12887012,90.00000000,90.00000000
1429,Li2V4Si4O13,1.9010999999999996,6.93926900,8.01079086,10.37522651,67.56335182,80.59947301,77.53752448
1430,Li2VBO4,1.8954,5.17383200,6.71568100,10.68890767,82.79049274,90.00000000,90.00000000
1431,Li5BiO4,1.9052000000000002,13.65635200,13.65635200,4.87800500,90.00000000,90.00000000,90.00000000
1432,Dy2Sb2O7,1.9056000000000006,7.53421871,7.53421871,18.54538000,90.00000000,90.00000000,120.00000619
1433,Na4B4Sb2SO16,1.8820000000000001,10.05034743,10.01864628,9.85391963,60.75423193,60.43307541,58.81269266
1434,CaLaI5,1.8992,4.49717700,15.19999000,18.29752600,90.00000000,90.00000000,90.00000000
1435,La4Ti3O12,1.8777,5.57554900,5.71209895,7.97116595,91.22957090,90.69269844,90.51634215
1436,LiFeCSO7,1.8932,6.44510900,5.24079900,8.85202761,86.35104296,90.00000000,90.00000000
1437,Li4CrFe3O8,1.8784,5.18540979,5.96264350,10.75287244,106.08938588,85.44781623,73.28917620
1438,Li7Fe3O8,1.8908,10.53956208,7.75152219,5.55052105,109.13975299,99.93920834,67.81386116
1439,Li4Ti3Nb2Ni3O16,1.8733999999999997,5.96585523,9.79634601,10.37173835,90.00546074,90.00361510,89.99683456
1440,Li2Fe3SbO8,1.8901,6.00636776,6.00636776,9.77889800,90.00000000,90.00000000,119.99999740
1441,Li3FeO3,1.9077000000000002,8.90190407,8.90187807,3.62976800,90.00008598,90.00015617,89.98582713
1442,CdSeO4,1.8944999999999999,4.96791500,5.02031700,6.82050200,90.00000000,90.00000000,90.00000000
1443,CuPO3,1.8792000000000002,9.70332746,9.70332746,9.70332806,114.89621752,114.89621752,114.89621285
1444,Li2Fe5B3O13,1.8960999999999997,3.16669600,9.62085800,15.69930610,72.96869542,90.00000000,90.00000000
1445,LiCrPO4,1.9035,10.17492129,10.17492129,16.85277106,81.44243916,81.44243916,59.51521828
1446,LiVPO4,1.8995999999999995,5.77235548,5.77234437,9.97839004,73.01991835,73.01974653,60.41477783
1447,La2Nb2N2O5,1.8865999999999996,7.61987188,7.61987188,7.61453073,60.08714015,60.08714015,90.10059610
1448,LiFe2OF5,1.9051,4.70059900,8.82168355,8.82321857,119.89086544,89.88190457,90.66520760
1449,FePO4,1.8858,4.78109200,6.59323700,8.75080400,90.00000000,90.00000000,90.00000000
1450,Sr2Ti6N2O11,1.9042,7.84652548,7.84652548,9.30616291,81.39181505,81.39181505,28.41003821
1451,Na3V2(PO4)3,1.9085,8.87318255,8.87318255,8.89007718,60.12004409,60.12004409,60.42110268
1452,Li4VCr3O8,1.8944999999999999,5.14628697,5.96595440,5.92948039,119.79130420,90.00134011,73.07072744
1453,V3OF11,1.9004,5.25500600,5.45710800,14.75627094,79.63190108,90.00000000,90.00000000
1454,LiCr3P3(HO6)2,1.9085999999999999,8.78920302,8.78920302,6.60020632,72.55395873,72.55395873,88.63788400
1455,Na5GdO4,1.8963999999999999,6.07286400,11.86886000,18.45776300,90.00000000,90.00000000,90.00000000
1456,LiFeOF2,1.9024,5.14642993,5.53072585,9.24270985,85.87173654,72.06445204,117.19116980
1457,Fe3OF5,1.8892,5.78408694,5.78408694,7.50100418,72.93901148,72.93901148,72.17315444
1458,Ca2CrO4,1.8783999999999996,5.64440400,9.66316400,13.59428300,90.00000000,90.00000000,90.00000000
1459,V3OF11,1.8989,5.27071000,5.44345329,14.61490194,79.54211173,89.95822849,89.96054993
1460,Al2ZnTe4,1.8961999999999999,7.37665819,7.37665819,7.37665819,131.22338831,131.22338831,71.45840140
1461,Al2CdTe4,1.8805,7.45145954,7.45145954,7.45145954,130.06636854,130.06636854,73.30068605
1462,MgPdF6,1.8762999999999999,5.43568563,5.43568563,5.43568472,56.03477042,56.03477042,56.03477051
1463,GaN,1.9046000000000003,3.21420761,3.21420761,3.21420761,60.00000000,60.00000000,60.00000000
1464,Ta3AgO8,1.8987000000000003,7.88279000,9.17149300,17.16001500,90.00000000,90.00000000,90.00000000
1465,Rb3InO3,1.8988999999999998,7.17845300,7.89453800,11.57078311,85.61097683,90.00000000,90.00000000
1466,Li2FeO2F,1.8959,5.16356983,5.16356983,9.86945656,85.06021889,85.06021889,120.14037578
1467,LiFeO2,1.8934000000000002,5.25793700,10.78418100,13.48683000,90.00000000,90.00000000,90.00000000
1468,K2InP2S7,1.8783999999999998,9.09261951,9.09261951,8.83522841,74.43245109,74.43245109,72.61745899
1469,Pr3AgGeS7,1.9036000000000004,10.37396592,10.37396592,5.88615500,90.00000000,90.00000000,119.99999948
1470,BaMgTe2O7,1.8971000000000005,8.57271683,8.57271683,5.65639400,90.00000000,90.00000000,128.89069034
1471,La17Al4(Si3N11)3,1.8771000000000004,10.92502746,10.92502746,10.92502746,60.00000000,60.00000000,60.00000000
1472,LiV2OF5,1.8787000000000003,4.75465529,4.75465529,18.61395631,89.77885113,89.77885113,90.00122702
1473,Sm3SiAgS7,1.8790000000000004,10.18990647,10.18990647,5.75705000,90.00000000,90.00000000,120.00000305
1474,NaCaAs,1.8906,4.92719783,4.92719783,4.92719783,60.00000000,60.00000000,60.00000000
1475,Na2LiAlP2,1.8976000000000002,8.95947350,8.95947350,5.80139200,90.00000000,90.00000000,99.28255677
1476,Mg2SnO4,1.9034999999999997,6.13760484,6.13760484,6.13760484,60.00000000,60.00000000,60.00000000
1477,SnBr2,1.9058,7.09433200,7.09433200,4.49151600,90.00000000,90.00000000,90.00000000
1478,TaTl(CuS2)2,1.8723000000000005,9.81807230,9.81807230,7.51630700,90.00000000,90.00000000,146.99656956
1479,KAuSe,1.8849,5.24433114,5.24433114,7.25035000,90.00000000,90.00000000,101.97577623
1480,SbOF,1.9008000000000003,3.91225200,3.91225200,5.69363100,90.00000000,90.00000000,90.00000000
1481,NaTbSe2,1.9026,7.39805472,7.39805472,7.39805466,32.74555615,32.74555615,32.74554949
1482,SnP2O7,1.8757000000000001,8.83609400,7.05676200,9.54276019,72.64912516,90.00000000,90.00000000
1483,Ca(CoO2)2,1.8785000000000003,5.13315500,5.92738700,11.04727200,90.00000000,90.00000000,90.00000000
1484,ZnBi2(PO5)2,1.9081000000000001,10.32175336,8.64581286,8.19415255,75.55043884,54.20688096,50.24268020
1485,CaSn(GeO3)2,1.8723,10.14001400,5.54239200,10.80330953,78.36619229,90.00000000,90.00000000
1486,MgP4WO12,1.8952,7.78601433,7.78601433,10.34887690,64.96056260,64.96056260,65.26636228
1487,CaCrO2,1.9000999999999997,3.11215100,8.26931100,8.50207833,83.38605637,90.00000000,90.00000000
1488,Y2W2O7,1.8854999999999995,7.33323126,7.33323126,7.43383361,60.95073140,60.95073140,60.57627866
1489,Ca(BiO2)2,1.8872,3.41437200,10.25341500,12.54953600,90.00000000,90.00000000,90.00000000
1490,AsWO5,1.8814,8.52422000,6.16719000,8.85607107,87.41582706,90.00000000,90.00000000
1491,Mg(MoO2)2,1.8994000000000009,3.14024800,9.61449900,11.02801900,90.00000000,90.00000000,90.00000000
1492,Mg3Mn3(AsO4)4,1.8851000000000002,5.26785800,8.71378800,16.45687690,67.56233131,90.00000000,90.00000000
1493,CaTe2O7,1.9045,7.46419400,7.26510300,7.61055452,73.00931131,90.00000000,90.00000000
1494,ZnGe2WO6,1.8998,8.75956000,5.53595900,12.57236963,77.77118115,90.00000000,90.00000000
1495,ZnSn2(PO5)2,1.8755999999999995,10.24839978,9.27111548,6.86359102,77.27519116,61.93588181,40.78892703
1496,LaTiZnFeO6,1.8740999999999999,5.71697900,5.40173600,9.41414666,55.14483997,90.00000000,90.00000000
1497,LaMgFeSbO6,1.9064000000000005,5.64940300,5.42761900,9.75177998,56.15609158,90.00000000,90.00000000
1498,CaP2(WO5)2,1.8924000000000003,10.17744512,8.93182692,7.26197280,77.11260130,58.81536799,44.07203071
1499,LaZnCrWO6,1.8953999999999995,5.69727900,5.44903900,9.51390050,55.91787184,90.00000000,90.00000000
1500,CaMn2O4,1.9400999999999997,3.31949375,5.07643276,5.93758740,67.78708828,80.31953903,82.43051257
1501,Na4Zn3S5,1.9106999999999998,3.93137100,13.18878400,18.87495200,90.00000000,90.00000000,90.00000000
1502,PrHSe,1.9162000000000003,4.06276638,4.06276638,8.02577100,90.00000000,90.00000000,120.00000613
1503,Rb2PdCl4,1.9238,7.31250600,7.31250600,4.50291500,90.00000000,90.00000000,90.00000000
1504,NbZn2N3,1.9319000000000006,5.74244941,5.74244941,5.44150200,90.00000000,90.00000000,119.20914519
1505,RbNbN2,1.9199,6.11399400,12.30540000,17.19611400,90.00000000,90.00000000,90.00000000
1506,Na3Mo2N5,1.9299,9.62472447,9.62472447,9.62472447,101.78707972,101.78707972,126.25992811
1507,NaMg14BO15,1.9427000000000003,4.34282600,8.49356900,8.55351000,90.00000000,90.00000000,90.00000000
1508,Mg30VZnO32,1.9215999999999998,8.53048000,8.53048000,8.53067300,90.00000000,90.00000000,90.00000000
1509,Mg30VZnO32,1.9230999999999998,8.52302500,8.52302500,8.52716200,90.00000000,90.00000000,90.00000000
1510,CsMg30WO32,1.9180000000000001,8.66497600,8.66497600,8.79829200,90.00000000,90.00000000,90.00000000
1511,RbNaMg30O31,1.9261000000000004,8.68436700,8.68436700,8.61779500,90.00000000,90.00000000,90.00000000
1512,KNaMg30O31,1.9292999999999996,8.56925300,8.64263600,8.65696500,90.00000000,90.00000000,90.00000000
1513,KRbMg30O31,1.9306,8.69535900,8.71591300,8.73989400,90.00000000,90.00000000,90.00000000
1514,K2PdC2,1.9334000000000002,5.18602081,5.18602081,5.29606000,90.00000000,90.00000000,120.00001034
1515,La5Sm3Cr8O24,1.916599999999999,7.84144100,7.84144100,7.84139500,90.00000000,90.00000000,90.00000000
1516,Zn(GaS2)2,1.9339000000000004,5.24256500,5.24256500,5.45554500,90.00000000,90.00000000,90.00000000
1517,LiAuF6,1.9323,5.47150214,5.47150214,5.47150281,55.10108135,55.10108135,55.10109013
1518,Mg30CrSnO32,1.9238,8.58766900,8.58766900,8.65704400,90.00000000,90.00000000,90.00000000
1519,KSnI3,1.9402000000000001,4.78961500,10.38448100,17.34593800,90.00000000,90.00000000,90.00000000
1520,Li2HfN2,1.9339000000000004,3.26017220,3.26017220,5.47771100,90.00000000,90.00000000,120.00000399
1521,CsLiMg30O31,1.9420000000000006,8.55568000,8.69689500,8.76089500,90.00000000,90.00000000,90.00000000
1522,Ca5Sn3S11,1.9309000000000003,8.74930500,8.74992684,13.91527139,84.22890088,85.13953383,76.83445011
1523,VF4,1.9378,6.08088100,4.96053100,10.89322382,63.91724087,90.00000000,90.00000000
1524,NaFeBO3,1.9415000000000004,5.11799842,9.01573308,5.70291125,89.98474562,79.10550244,89.99416942
1525,K2LiSbI6,1.9110999999999998,8.46413605,8.46413605,8.46413605,60.00000000,60.00000000,60.00000000
1526,K2TlAsCl6,1.9413999999999998,7.78312858,7.78312858,7.78312858,60.00000000,60.00000000,60.00000000
1527,K2RbAlI6,1.9213,8.80327154,8.80327154,8.80327154,60.00000000,60.00000000,60.00000000
1528,K2YAuBr6,1.9279,7.97628329,7.97628329,7.97628329,60.00000000,60.00000000,60.00000000
1529,K2ScCuCl6,1.9109,7.12292419,7.12292419,7.12292419,60.00000000,60.00000000,60.00000000
1530,Cs2NaTlCl6,1.9339,7.69356361,7.69356361,7.69356361,60.00000000,60.00000000,60.00000000
1531,Cs2LiSbI6,1.9190999999999998,8.56150607,8.56150607,8.56150607,60.00000000,60.00000000,60.00000000
1532,Rb2ScCuCl6,1.9245,7.18636157,7.18636157,7.18636157,60.00000000,60.00000000,60.00000000
1533,Rb2YAuBr6,1.9119000000000002,8.00600157,8.00600157,8.00600157,60.00000000,60.00000000,60.00000000
1534,Na2TiHgF6,1.9101,6.68659688,6.68659688,6.68659688,60.00000000,60.00000000,60.00000000
1535,Na2LiRhF6,1.9141,5.63395672,5.63395672,5.63395672,60.00000000,60.00000000,60.00000000
1536,Rb2LiSbI6,1.9172999999999998,8.50261963,8.50261963,8.50261963,60.00000000,60.00000000,60.00000000
1537,CaV(Si2O5)2,1.9167000000000005,7.48291300,7.48291300,15.43614800,90.00000000,90.00000000,90.00000000
1538,CaFe2(SiO3)4,1.9181,6.61623025,6.61623025,5.34000057,77.42037105,77.42037105,84.79772841
1539,Na7La7Th2Ti18O54,1.9308999999999994,35.75072650,35.75068560,5.47095164,85.61213457,85.61128035,8.77658508
1540,Li4VCr3O8,1.9415999999999998,5.95589517,5.95589517,5.14389560,73.25351333,73.25351333,60.13744345
1541,Li4Mn3Cr2Sn(PO4)6,1.9194,8.62050300,8.77859546,8.90712680,61.30258075,61.77538940,62.21722447
1542,Li4CrFe3Sn2(PO4)6,1.9251999999999998,8.52096800,8.56422185,9.23361755,90.76547801,116.86113880,119.69917625
1543,Li2NbCo3O8,1.9293000000000002,6.05189774,6.05189774,6.05189778,59.56466542,59.56466542,59.56466334
1544,Cs5YO4,1.9300000000000002,13.43543600,7.57457400,11.91726019,81.59415083,90.00000000,90.00000000
1545,Nb2FeO6,1.9305,5.33325142,5.83146340,14.95508335,89.93310164,90.41823091,90.03262332
1546,NaV3(SO7)2,1.9288000000000003,7.17039171,7.17039171,7.17039187,58.97683947,58.97683947,58.97683227
1547,Cd(PO5)2,1.9428,12.38595776,12.38595776,5.38947800,90.00000000,90.00000000,119.99999871
1548,TlBr3,1.9391999999999998,6.81623900,10.92477700,13.82735300,90.00000000,90.00000000,90.00000000
1549,Li2CdSnS4,1.9446000000000003,6.57568400,7.04438600,8.07699300,90.00000000,90.00000000,90.00000000
1550,NaCdAsS3,1.9276999999999997,16.73399100,5.76701100,8.11073793,45.91373391,90.00000000,90.00000000
1551,SbH5(Cl3O)2,1.9244,7.07866045,7.07866045,13.56446826,69.46092184,69.46092184,61.49240627
1552,Ba(CO2)2,1.9111999999999998,6.86059600,8.48190800,8.74169000,90.00000000,90.00000000,90.00000000
1553,K2MoS3O,1.9318,7.29421000,9.33991200,11.56421900,90.00000000,90.00000000,90.00000000
1554,K5V9H20PtO37,1.9297,10.33825800,13.01657601,13.91570105,103.75638948,106.64149099,92.54055267
1555,S2Xe(O3F)2,1.9427999999999999,13.88423700,7.05325800,10.18991108,53.35295114,90.00000000,90.00000000
1556,Ba3P14,1.9163999999999999,13.25005900,6.56855000,12.22044064,57.85994694,90.00000000,90.00000000
1557,BaYFeO4,1.9314999999999998,5.75935900,10.38314100,13.35618300,90.00000000,90.00000000,90.00000000
1558,H26Pd5(C11O8)2,1.9202,10.26039094,10.22226266,10.98497388,93.58407660,112.67394746,116.81824729
1559,Nd8Sb2S15,1.9117000000000006,14.90958860,14.90958860,14.90958860,116.26025769,116.26025769,96.60947937
1560,CuP4S3Br,1.9243000000000001,6.52396900,9.40309834,15.83625269,97.52357313,97.94722249,106.91925676
1561,NiRu5C17O16,1.9236999999999997,9.36032000,10.10439952,16.29439682,85.20594957,83.31673652,63.37791454
1562,InRe2(CO)9,1.9165999999999999,16.81148200,6.95508400,14.53510320,62.24537248,90.00000000,90.00000000
1563,Rb3P11,1.9328,11.07186100,11.26797400,14.36646400,90.00000000,90.00000000,90.00000000
1564,Fe7(SiO4)4,1.9327,4.90031900,10.40467300,12.04363103,89.12107348,90.00000000,90.00000000
1565,NbAl2(SeCl4)2,1.9328,10.24375100,9.28130600,18.74644063,63.44455773,90.00000000,90.00000000
1566,P,1.9259000000000004,7.85748000,12.14707620,13.04870569,102.66942805,106.71627095,101.97555176
1567,TlP2HO7,1.9437,9.17070300,7.34018600,10.00999800,61.45946249,90.00000000,90.00000000
1568,NaFeP2(O3F)2,1.9102999999999999,14.40797100,6.55292600,6.56675407,83.94683811,90.00000000,90.00000000
1569,CsMo3I7,1.9219999999999997,11.06858183,11.06858183,16.97473700,90.00000000,90.00000000,119.99999899
1570,CoH14SeN5O7,1.9253999999999998,7.12781100,11.61020300,12.80266400,90.00000000,90.00000000,90.00000000
1571,U2H12C2S3(NO8)2,1.9335,8.76347100,9.95996378,9.98595576,89.80296772,84.09149603,89.84012328
1572,Si4Te2H44Pd(C8Cl)2,1.9207999999999998,13.06753167,13.06753167,20.87473705,84.84978429,84.84978429,30.29378180
1573,H7AuN4O15,1.9357000000000002,7.63244447,7.63244447,12.44208174,67.95472336,67.95472336,70.68758488
1574,BPb7Br3O7,1.9254000000000002,9.48051183,9.48051183,21.74053074,83.02457543,83.02457543,57.20118639
1575,HgC8(NCl2)2,1.9434,13.82669800,9.12224000,13.03572602,89.73922662,90.00000000,90.00000000
1576,Na2Mo(H2O3)4,1.9425999999999999,8.73489900,9.17008500,12.56227054,86.30679313,90.00000000,90.00000000
1577,MnB4H24(C2N)2,1.9167,12.73099260,12.73099260,12.73099260,125.72304003,125.72304003,80.34382090
1578,H15PdRuN9O11,1.9365999999999999,9.32568600,10.35899976,10.59302403,100.04922298,114.53451280,108.68118755
1579,Bi2O3,1.9407000000000005,9.70354099,9.70354099,9.70354099,109.47122063,109.47122063,109.47122063
1580,Na2Li2NiP6(H4O5)6,1.9242999999999997,10.41333297,10.41333297,15.05093889,71.00735166,71.00735166,60.03328817
1581,Cd12Ge17(B4O29)2,1.9243000000000001,15.15850900,15.15850900,4.77104500,90.00000000,90.00000000,90.00000000
1582,Cs3Zr2P5S18,1.9114,7.05375898,7.05375898,34.54817709,86.86073861,86.86073861,93.67288088
1583,LiLa2VO6,1.9203000000000001,5.46543762,5.46543762,5.46543762,60.00000000,60.00000000,60.00000000
1584,NdHSe,1.9425999999999997,4.01539245,4.01539245,8.00941400,90.00000000,90.00000000,120.00000745
1585,ZnFePO5,1.9220000000000002,9.75293193,12.08134826,12.87985082,90.00000000,90.00000000,107.74883217
1586,Rb2MoO8,1.9303000000000001,8.79506500,7.08928700,13.63250563,63.80833288,90.00000000,90.00000000
1587,Na2HoNb5O15,1.9364000000000001,12.65070200,12.65070200,3.93660400,90.00000000,90.00000000,90.00000000
1588,LuSeF,1.9303000000000003,4.02308045,4.02308045,17.54495700,90.00000000,90.00000000,120.00000738
1589,Mg2FeBO5,1.9314999999999998,3.04330100,9.37323900,12.42583400,90.00000000,90.00000000,90.00000000
1590,Mn3ZnO7,1.9165,7.49562812,7.49562812,7.49562835,62.46287893,62.46287893,62.46287247
1591,Mn2Fe5(SiO3)8,1.9157000000000002,5.40011600,9.47422400,18.45646800,90.00000000,90.00000000,90.00000000
1592,K2PrNb5O15,1.9265,12.79386400,12.79386400,3.96860500,90.00000000,90.00000000,90.00000000
1593,La3Fe5O12,1.9344000000000001,11.16707715,11.16707715,11.16707715,109.47122063,109.47122063,109.47122063
1594,H17RuN6ClO3,1.9374,10.61493171,10.61493171,7.14685400,90.00000000,90.00000000,139.03850826
1595,FeBi6P2(O7F)2,1.9250000000000007,8.85261922,8.85261922,16.98132082,71.05422325,71.05422325,36.86969298
1596,Fe2Te4BrClO10,1.9088000000000003,6.69254816,13.51190576,14.49746955,107.69564116,90.00000000,90.00000000
1597,In2H5(SeO4)3,1.9347,6.10644000,11.38253930,11.72762239,91.30467331,91.91819696,105.37808841
1598,CaB5H4O9,1.9271,20.36059100,6.59088300,6.61651805,60.83317987,90.00000000,90.00000000
1599,Ca3Ga2(SnO4)3,1.9401000000000002,11.19148521,11.19148521,11.19148521,109.47122063,109.47122063,109.47122063
1600,Ba2PrBiO6,1.9422000000000001,6.25906932,6.25906932,6.31072258,60.03861366,60.03861366,60.12858220
1601,ZrTi4(PbO3)5,1.9137000000000004,14.22860563,14.22860563,4.48042200,90.00000000,90.00000000,157.40541560
1602,Y2CrSbO7,1.9228000000000005,7.28946904,7.26155531,7.34613518,90.00001103,59.74255806,119.87351672
1603,TiNbCrO6,1.9352,4.70436200,9.40811500,9.08635200,89.99991954,90.00079917,89.99834965
1604,TiNb2O7,1.9348,10.48423567,10.48423567,12.16311687,60.27565580,60.27565580,21.21590895
1605,TaTiAlO6,1.9215999999999998,4.62678300,4.62678300,8.93430200,90.00000000,90.00000000,90.00000000
1606,TaGaBi2O7,1.9249999999999998,7.44950202,7.44950202,7.44950202,120.55925407,119.67543360,89.79858462
1607,SrCaPbO4,1.928,3.48700100,6.06572000,10.08676462,89.59691172,90.00000000,90.00000000
1608,Sr4BrN2Cl,1.9114999999999998,14.71444903,14.71444903,14.71444879,15.37037125,15.37037125,15.37037460
1609,Sr5ZrTi4O15,1.9147000000000003,12.00292396,12.00292396,12.00292369,27.20523158,27.20523158,27.20523631
1610,Sr3ZrTi2O9,1.9437000000000002,5.69311815,5.69311815,12.67097733,77.15796951,77.15796951,90.50731218
1611,Sr3CaTi4O12,1.9415,5.54707843,5.54707843,9.59927718,73.39391373,73.39391373,60.25150192
1612,Sr10Mg4Fe(MoO6)5,1.9366000000000003,8.04065800,9.78796112,9.78796112,80.28721849,114.25147564,114.25147564
1613,SiH8C4F3,1.9296000000000002,10.27204900,6.87836200,6.89374321,77.17225971,90.00000000,90.00000000
1614,Rb3Er7S12,1.9309999999999998,3.99389100,12.14651200,25.03283000,90.00000000,90.00000000,90.00000000
1615,NaSr2NdTi4O12,1.9236000000000004,5.51865000,5.51865000,7.87539700,90.00000000,90.00000000,90.00000000
1616,Na4TeSe,1.9291,5.00741600,5.00741600,7.11316300,90.00000000,90.00000000,90.00000000