,pretty_formula,bandgap,cell_length_a,cell_lentgh_b,cell_lentgh_c,cell_angle_alpha,cell_angle_beta,cell_angle_gamma
5100,TbPtF7,2.1725,5.54606000,8.97161500,12.03784402,62.29509207,90.00000000,90.00000000
5101,RbFe(SO4)2,2.1864000000000003,4.91594503,4.91594503,8.59031800,90.00000000,90.00000000,119.99998695
5102,Rb4UC3O11,2.1543,7.35407639,7.35407639,12.81696421,87.93723629,87.93723629,80.93910087
5103,NbTlCl6,2.1687,6.97146633,6.97146633,12.51321874,79.61137912,79.61137912,55.42523721
5104,Na4Zr2TiMnSi4(O8F)2,2.1565999999999996,7.19201700,5.66398000,18.73015790,77.21159818,90.00000000,90.00000000
5105,Na3Sb3(PO7)2,2.1599000000000004,7.32592000,6.39184100,12.58302928,72.02666041,90.00000000,90.00000000
5106,Li2ZnGeS4,2.1847,6.34999600,6.86903100,7.52558000,90.00000000,90.00000000,90.00000000
5107,KV2AgO6,2.1557,7.44997499,7.44997499,5.90457238,79.77023346,79.77023346,85.51389708
5108,La3BeAlS7,2.1630000000000003,10.25754787,10.25754787,5.87409400,90.00000000,90.00000000,119.99999917
5109,KCaV2F9,2.1623,7.56575738,7.56575738,23.89680100,90.00000000,90.00000000,119.51726423
5110,K2HgHCl4,2.1603000000000003,4.56315700,7.86150800,12.00721500,90.00000000,90.00000000,90.00000000
5111,C8Cl3F2,2.1542,4.93036400,11.16204500,15.63452673,65.99694688,90.00000000,90.00000000
5112,BH2S3N3F4,2.1897,5.55597800,7.47524828,9.75232998,86.08723094,83.19012237,83.37536830
5113,Ba2CaMnFe2F14,2.157,7.50070859,7.50070859,15.27585065,88.10724323,88.10724323,42.87134675
5114,Al2Cd3(GeO4)3,2.1907000000000005,10.61046530,10.61046530,10.61046530,109.47122063,109.47122063,109.47122063
5115,ZnCd(GaS2)4,2.1694,5.51050700,5.51050700,10.41210000,90.00000000,90.00000000,90.00000000
5116,Tm2PbS4,2.1853999999999996,14.79789042,14.79789042,12.07741800,90.00000000,90.00000000,149.10178973
5117,Ti4Nb(BiO3)7,2.176,29.77115070,29.77115070,5.45549848,84.90524345,84.90524345,10.62904776
5118,Tb6Mg(GeS7)2,2.1796,9.88430505,9.88430505,5.82090900,90.00000000,90.00000000,119.99999365
5119,SrCa3(SnO3)4,2.1645000000000003,8.05072700,5.63828600,5.76841261,89.97362874,90.00000000,90.00000000
5120,ScMn2SbO6,2.1906,6.30059200,6.32753585,6.33480538,91.09253903,91.06888045,91.15151016
5121,NbBi2O5F,2.1813999999999996,5.45937000,5.47074000,17.02851000,90.00000000,90.00000000,90.00000000
5122,Na7Cr4P9O32,2.1772,14.29660700,6.41045600,14.29664251,89.91836838,90.00000000,90.00000000
5123,NaCa2Ta3O10,2.1908,14.95346508,14.95346508,14.95346508,164.83474540,164.83474540,21.51046236
5124,NaCr12Si8ClO28,2.1681000000000004,9.91012810,9.91012810,9.91012810,116.35193203,116.35193203,96.44404618
5125,MgMn2O3,2.1741,3.12325388,5.38045750,7.68465876,89.86318900,90.00003698,89.99996999
5126,Li5Cr3(PO4)4,2.1685000000000003,5.01170500,8.01771453,8.58815720,110.00655203,90.55505639,104.93221906
5127,La2TiMnO6,2.1708999999999996,5.63715075,9.88224932,9.88213646,71.34205467,89.86768489,89.86745712
5128,KPr5(CCl5)2,2.1683,8.61575414,8.61575414,15.21123300,90.00000000,90.00000000,120.00000109
5129,K4Gd2C3O9F4,2.1909,7.00925863,7.00925863,7.06114690,81.40163060,81.40163060,81.12830056
5130,HfTl2Fe2(MoO4)6,2.1841999999999997,8.67114800,8.67381141,8.67376181,100.19649792,99.96504931,100.42596475
5131,HoP2(HO2)5,2.1731,6.42300900,6.89767449,10.29468609,99.70757221,100.06706971,89.24019552
5132,Er2CrSbO7,2.1765000000000008,7.23299080,7.23299080,7.23299080,120.17257105,119.44569718,90.33205457
5133,Dy6Mg(GeS7)2,2.1738,9.85762640,9.85762640,5.79370500,90.00000000,90.00000000,120.00000269
5134,ErAgS2,2.1796,6.60236412,6.60236412,6.60236374,35.16432798,35.16432798,35.16432922
5135,Gd2Mn(GeO3)4,2.1607,5.05589200,10.10617506,10.10617506,90.68023927,90.00000000,90.00000000
5136,Cs2LiV3F12,2.1738,7.44508713,7.44508713,7.44508677,60.94370060,60.94370060,60.94369693
5137,CeZr3O8,2.1798,6.52148407,6.52148407,3.70706200,90.00000000,90.00000000,110.99795847
5138,CeTh3O8,2.1605,13.07551586,13.07551586,13.07551509,17.38402681,17.38402681,17.38403054
5139,BaSr3Zr2Ti2O12,2.1807000000000003,10.03140278,10.03140278,10.03140280,33.46883168,33.46883168,33.46883151
5140,Ba3Ta4Ti4O21,2.1913,9.12876766,9.12876766,11.92856119,89.96993129,89.96993129,60.20478820
5141,Ba2FeCoClF7,2.1571000000000002,5.95809100,7.82624300,9.07469897,73.24632326,90.00000000,90.00000000
5142,Nd2MgSe4,2.1795,7.73339100,9.01625789,13.68977449,99.40473304,95.95926851,90.28544877
5143,Pr2MgSe4,2.1901,7.78403400,9.07612009,13.71492395,99.60161152,96.00031957,90.16157015
5144,Y2MgSe4,2.1774999999999998,7.48774500,8.67791053,13.87046281,99.17382705,95.39729116,89.98000107
5145,Pm2MgSe4,2.1856,7.67051900,8.91036111,13.90936368,99.45261420,95.63815003,90.00915666
5146,H4I3NO9,2.1844,8.26123803,8.57921898,8.25556096,84.28288297,64.92759000,63.82608236
5147,KB6(HO)6,2.1569000000000003,10.25780800,7.20640900,11.21081266,54.25162817,90.00000000,90.00000000
5148,CaV2O5,2.165,3.81784000,5.89916050,11.32365800,90.00000000,90.00000000,108.88027153
5149,TiP3WO12,2.1916,8.85195695,8.85195612,8.85195736,59.06029515,59.06029756,59.06029818
5150,Ga3C3N7,2.1661,6.58405886,13.10652807,14.46323544,90.00000000,90.00000000,90.00000000
5151,Pb4SBr6,2.1752,4.32026019,9.90634837,9.85528498,62.18622365,77.38082426,77.49321516
5152,Y4S3N2,2.1703,6.65552142,11.54542302,9.83181878,90.00000000,90.00000000,90.00000000
5153,Al2InN3,2.160799999999999,5.67227926,5.65531607,5.24761000,90.00000000,90.00000000,119.90111664
5154,SrGe7N10,2.1714,7.26460565,7.16673752,10.24159717,90.00000000,105.47053551,90.00000000
5155,CaGe7N10,2.1644,7.18740358,7.22497036,10.25662553,90.00000000,104.94538325,90.00000000
5156,Li2V(Si2O5)3,2.1550000000000002,7.24074172,7.44053758,15.29571051,75.41063613,90.00000000,60.88436307
5157,Mg3Mn2(Si2O7)2,2.1814999999999998,9.35536808,9.35536808,9.94919819,58.95279470,58.95279470,48.24925344
5158,CaV(SiO3)2,2.1804000000000006,5.41491500,9.60481000,19.39268700,90.00000000,90.00000000,90.00000000
5159,Mg2CrSbO6,2.1540999999999997,5.17777219,5.36812823,7.64032200,89.99998198,89.99993683,90.48976429
5160,Sr4CaCr2(SO3)2,2.1747,3.96920800,17.02114780,7.94173201,76.51456860,90.00017319,90.00000953
5161,MnZn2WO6,2.1627,5.32219654,7.76460344,5.65111475,94.75778469,90.02632860,89.96679707
5162,LiNbFeO4,2.1653000000000002,6.29164380,8.85946789,6.11071439,89.98169001,89.93157306,89.99909103
5163,Mg2CrWO6,2.1684,5.18594358,5.53122536,8.98665859,105.74435256,89.83543671,62.33233799
5164,KPrSiSe4,2.1778000000000004,7.08219400,6.87010500,9.17922785,72.41942893,90.00000000,90.00000000
5165,Na5FeO4,2.1701,6.02520600,10.48643800,18.15226400,90.00000000,90.00000000,90.00000000
5166,Er2SeO2,2.1792,3.80690350,3.80690350,6.78189000,90.00000000,90.00000000,119.99999136
5167,AgMoPO6,2.1575,12.20089500,6.43599200,13.59860772,64.83643918,90.00000000,90.00000000
5168,TlGaO2,2.1791,5.93916098,5.93916098,5.93916098,60.00000000,60.00000000,60.00000000
5169,Na2UP2O9,2.1753,7.04976600,8.28027100,13.42895400,90.00000000,90.00000000,90.00000000
5170,LiErS2,2.1579000000000006,6.55935693,6.55935693,6.55935729,34.36061942,34.36061942,34.36061665
5171,Ca2Ta2CrO8,2.1716,5.43336890,10.39357823,13.11403666,112.36772498,88.06335802,92.69853704
5172,Ho2MoO6,2.1797000000000004,9.91241158,9.91241158,5.37794871,75.02283475,75.02283475,68.07136540
5173,Zn3(AsO4)2,2.1546,8.66666100,5.33991200,9.03674073,60.83263073,90.00000000,90.00000000
5174,Na6Si2Se7,2.1566,7.24008715,7.24008715,15.98160302,80.43840700,80.43840700,98.14543141
5175,KMo3(PO7)2,2.1751,6.50784950,8.95416939,10.81614420,111.11255889,90.00000000,90.00000000
5176,Cs2WS4,2.1759,7.39510500,10.39569000,13.20640200,90.00000000,90.00000000,90.00000000
5177,Dy2MoO6,2.1909,9.95578354,9.95578354,5.40324615,75.00937588,75.00937588,68.03213664
5178,Ca2UO5,2.1652,5.50585800,7.97661300,11.49088590,71.81173016,90.00000000,90.00000000
5179,TaVO5,2.172,5.61633500,7.06262300,12.06380700,90.00000000,90.00000000,90.00000000
5180,Sr3YRhO6,2.1748,6.86380976,6.86380976,6.86381026,92.05698322,92.05698322,92.05698496
5181,HoPS4,2.1574999999999998,12.19970077,12.19970077,12.19970077,127.59175370,127.59175370,77.28731047
5182,Sr3DyRhO6,2.1674,6.86007896,6.86007896,6.86007862,92.14819622,92.14819622,92.14820596
5183,Sr3HoRhO6,2.1906999999999996,6.85161929,6.85161929,6.85161912,92.19087735,92.19087735,92.19088562
5184,Cs2LiMnO4,2.1647999999999996,6.08039000,12.39209800,8.31034300,90.00000000,90.00000000,90.00000000
5185,TlV2AgO6,2.1571,7.60458730,7.60458730,5.98907521,79.17673094,79.17673094,87.01829340
5186,Na7Fe3O8,2.1599,6.00494743,8.44498729,11.51874329,68.42186936,78.54496997,70.50087245
5187,NaCoO2,2.1838999999999995,5.51386335,5.51386335,5.51386310,30.70722325,30.70722325,30.70722841
5188,UMoO6,2.1828,5.56939900,7.28503100,13.74892833,75.47072702,90.00000000,90.00000000
5189,NiMoO4,2.1780000000000004,4.65740600,4.96613186,5.75124000,90.00000000,90.00000000,90.11951407
5190,La2Ni2O5,2.1783,5.60134674,5.60134674,7.55809818,85.75092971,85.75092971,90.66536237
5191,BaSm2NiO5,2.1603000000000003,3.83947272,5.92142213,6.82485927,115.70977227,106.33696345,89.99999999
5192,CoSO4,2.1673,4.81198501,6.81044730,8.67155712,89.81485138,90.00131490,90.00064987
5193,KFe(SO4)2,2.1881,8.31662877,9.57491849,9.57491837,66.11686209,86.00942190,86.00942474
5194,Rb4PbO3,2.1723,6.92891500,12.25143400,20.05215700,90.00000000,90.00000000,90.00000000
5195,Ni2GeO4,2.1542,5.87826211,5.87826211,5.87826211,60.00000000,60.00000000,60.00000000
5196,PbIF,2.1662,4.23585500,4.23585500,9.45969800,90.00000000,90.00000000,90.00000000
5197,InCl,2.1876999999999995,12.55094800,12.55094800,12.55094800,90.00000000,90.00000000,90.00000000
5198,GaSeBr7,2.1839,6.77328200,7.00651500,15.31278723,75.92672169,90.00000000,90.00000000
5199,Rb2TeBr6,2.158,7.84585037,7.84585037,7.84585037,60.00000000,60.00000000,60.00000000
5200,Cs2PtCl6,2.1813,7.51047669,7.51047669,7.51047669,60.00000000,60.00000000,60.00000000
5201,Cd5P3ClO12,2.1605999999999996,9.92485427,9.92485427,6.57008800,90.00000000,90.00000000,120.00000177
5202,LiMnH6O7,2.1726,7.77012283,7.77012283,5.65000300,90.00000000,90.00000000,120.00000706
5203,V3H4NO8,2.1683,8.58215500,5.09855300,8.05296867,83.56886832,90.00000000,90.00000000
5204,LiFePO4F,2.1778000000000004,5.21172000,5.36560926,7.39721607,106.77179127,108.76034616,97.87983281
5205,Li3Fe(PO4)2,2.1803,17.91483300,4.94419100,6.38431079,87.00922049,90.00000000,90.00000000
5206,Ca3PI3,2.1548,10.77557998,10.77557998,10.77557998,109.47122063,109.47122063,109.47122063
5207,TeAsF5,2.1847,9.91671379,9.91671379,15.66764118,85.49685634,85.49685634,78.62093950
5208,GaTeCl,2.1714,4.16141600,5.98308800,15.90599800,90.00000000,90.00000000,90.00000000
5209,TiPCl9,2.1747,7.27727100,9.25107429,9.86307479,101.35200540,97.11138262,95.33356306
5210,Rb2TiCl6,2.1834,7.24614321,7.24614321,7.24614321,60.00000000,60.00000000,60.00000000
5211,LaNb5O14,2.1536,3.92979900,12.66321000,20.45992900,90.00000000,90.00000000,90.00000000
5212,NaSbCl6,2.1828,6.61256100,6.61256100,10.94956800,90.00000000,90.00000000,90.00000000
5213,Na3AuO2,2.1593999999999998,9.81446100,9.81446100,4.63843500,90.00000000,90.00000000,90.00000000
5214,SrHgO2,2.1654,3.89983474,3.89983474,19.24411056,90.00000000,90.00000000,119.99999997
5215,BaGe2S5,2.1848,10.76610097,10.76610097,10.76610097,60.00000000,60.00000000,60.00000000
5216,In7Cl9,2.1903000000000006,12.42853500,12.42853500,12.42853500,90.00000000,90.00000000,90.00000000
5217,La(AuF4)3,2.1698,8.35897339,8.35897339,8.35897381,80.15867167,80.15867167,80.15867340
5218,V2Se3O11,2.1662,6.42882500,9.49829400,15.40187848,86.75510998,90.00000000,90.00000000
5219,AlSeBr7,2.1776999999999997,6.82140100,7.12416600,15.29868452,74.77920322,90.00000000,90.00000000
5220,Ga4GeO8,2.1830999999999996,6.37860812,6.37860812,9.52571328,55.99252379,55.99252379,27.64146819
5221,NbTeCl9,2.1717,6.70481300,9.79131209,11.82117828,106.43907407,105.22936395,91.14909846
5222,IF3,2.1757,4.72860500,6.75507200,9.12442500,90.00000000,90.00000000,90.00000000
5223,Hg2SeO3,2.1898,5.28005200,8.99567800,12.28809473,57.39676462,90.00000000,90.00000000
5224,LuPS4,2.179,6.51049400,8.69401100,12.55836784,59.48527050,90.00000000,90.00000000
5225,HfBrN,2.1767999999999996,10.50625995,10.50625995,10.50626008,19.91618060,19.91618060,19.91617810
5226,Bi3SbO7,2.1907999999999994,6.69533400,7.03391451,7.70499913,106.25051628,89.51128073,103.13064568
5227,Ba2TaCrO6,2.1562,5.81948654,5.81948654,19.14643665,90.00000000,90.00000000,120.00000000
5228,Ca(LaS2)2,2.157,7.52916424,7.52916424,7.52916424,109.60787055,109.60787055,109.19826514
5229,Sr(YS2)2,2.1883,7.39651015,7.39651015,7.39651015,109.40191320,109.40191320,109.60992460
5230,La2PbS4,2.183,7.63233639,7.63233639,7.63233639,109.33877959,109.33877959,109.73642869
5231,CaUO4,2.1662,6.34968439,6.34968439,6.34968493,35.73942565,35.73942565,35.73942173
5232,BaCaLaBiO6,2.154,6.08527893,6.08527893,6.08527893,60.00000000,60.00000000,60.00000000
5233,TbPS4,2.1769999999999996,12.25727939,12.25727939,12.25727939,127.55789772,127.55789772,77.34231880
5234,Si(PbS2)2,2.1705,6.81475700,6.69942900,16.97966161,71.86760156,90.00000000,90.00000000
5235,CsTmZnSe3,2.1726,8.39624855,8.39624855,10.91196200,90.00000000,90.00000000,151.45957426
5236,Na4UO5,2.1802,5.92066670,5.92066670,5.92066670,98.88371740,98.88371740,133.72047840
5237,Li2Cr3(P2O7)2,2.1867,8.11352800,7.39826900,9.62549139,71.49105044,90.00000000,90.00000000
5238,NCl3,2.1637,8.50966100,9.86615800,17.43019600,90.00000000,90.00000000,90.00000000
5239,P4Se3,2.1601,10.60695300,11.89151600,14.95032200,90.00000000,90.00000000,90.00000000
5240,Sr2Li3TaN4,2.1584999999999996,7.04132900,8.74304700,9.03594400,90.00000000,90.00000000,90.00000000
5241,V2Se2O9,2.1685000000000003,10.52711600,8.18169300,10.72358933,53.87609667,90.00000000,90.00000000
5242,UTlH(SeO4)2,2.1613999999999995,10.40283000,8.56306900,12.74207191,52.86295401,90.00000000,90.00000000
5243,Na4CO4,2.1738999999999997,4.86460968,4.86460968,4.86460936,91.57521539,91.57521539,91.57522618
5244,BaLiBS3,2.1810000000000005,8.77522400,7.66384300,8.79226138,63.64017267,90.00000000,90.00000000
5245,RbSnIO6,2.1895000000000002,5.38586036,5.38586036,12.73177200,90.00000000,90.00000000,120.00000445
5246,Ba3(PS4)2,2.1538,6.69420200,11.84409500,17.57235165,89.96851599,90.00000000,90.00000000
5247,CrP2Pb5O13,2.1533,9.62105800,10.49379700,13.71209500,90.00000000,90.00000000,90.00000000
5248,Rb6U2Mo4O21,2.1909,10.35353500,10.36330020,13.63263292,76.86496712,76.35909544,64.84506463
5249,Te6As4C3(NF8)3,2.1702,8.98842702,8.98842702,19.82872249,75.98587298,75.98587298,68.66131283
5250,Cs3KRe6C6(S4N3)2,2.1868,15.65419899,15.65419899,15.65419899,109.47122063,109.47122063,109.47122063
5251,BaTi2O5,2.1837999999999997,8.74977066,8.74977066,9.59550929,77.48668850,77.48668850,26.22006304
5252,CaTiO3,2.1599999999999997,5.45032853,5.45032853,5.45032853,119.68847884,119.68150017,90.54648578
5253,La2CrO6,2.1601,7.60299998,7.60299998,8.51446965,73.44523050,73.44523050,33.94025551
5254,BaHgO2,2.1892,6.98173176,6.98173176,12.67976000,90.00000000,90.00000000,119.99999775
5255,S4N5Cl,2.185,12.84270700,10.65002500,12.23020601,86.45295187,90.00000000,90.00000000
5256,Ba3Sn2S7,2.1916999999999995,6.89121600,11.25710700,19.00972091,79.34486459,90.00000000,90.00000000
5257,TlBiP2S7,2.183,12.62594400,9.19640100,9.76927840,89.55142489,90.00000000,90.00000000
5258,Na3Fe2(AsO4)3,2.1856999999999998,10.76138928,10.76138928,10.76138928,109.47122063,109.47122063,109.47122063
5259,Sn3WO6,2.1584,7.78445855,7.78445855,14.18806700,70.82285548,70.82285548,63.85474283
5260,CdAs2S18N12(OF2)6,2.1881,9.35721500,10.56385724,11.41968946,114.55521191,98.86029614,87.09189516
5261,CsK2AuO2,2.1855,6.36480600,7.46010000,12.71218700,90.00000000,90.00000000,90.00000000
5262,Rb2UCr(IO6)2,2.1862,7.45067800,11.54242700,16.40635573,72.98279600,90.00000000,90.00000000
5263,NaZr2VF11,2.1721999999999997,5.80239917,5.80239917,7.93098777,69.28455570,69.28455570,72.83324371
5264,SrVClO3,2.189,5.33427200,7.08569100,10.24580900,90.00000000,90.00000000,90.00000000
5265,LiMoIO6,2.1826,5.43192300,5.50279200,9.10741644,72.92736427,90.00000000,90.00000000
5266,Rb2HfS4,2.1770000000000005,6.78008400,9.88729700,24.32735400,90.00000000,90.00000000,90.00000000
5267,K2Li4UO6,2.1555,6.12119939,6.12119939,5.67365300,90.00000000,90.00000000,119.99999343
5268,CsInS2,2.1723,8.08528028,8.08528028,16.58463107,83.02043664,83.02043664,89.99117086
5269,PH3CS3,2.1833,8.44006100,8.60428500,8.90653766,69.33399589,90.00000000,90.00000000
5270,RbUSO6F,2.1799,6.80914200,12.06641700,25.69676800,90.00000000,90.00000000,90.00000000
5271,TaP4(SCl)5,2.177,6.93104300,10.61689478,13.65953465,98.04229617,104.51261965,106.94355559
5272,K2Ba(NO2)4,2.1776999999999997,9.15385267,9.15385267,13.42388961,68.67784116,68.67784116,86.14740355
5273,Nb2Cd2O7,2.1745,7.48136304,7.48136304,7.48136304,120.33218438,119.56417713,90.09106182
5274,Tl4V5CdClO15,2.1629,9.27444200,9.27444200,5.71441900,90.00000000,90.00000000,90.00000000
5275,SINOF2,2.1633,18.77271800,5.06503700,11.35227414,80.44175386,90.00000000,90.00000000
5276,NaSb(PS3)2,2.1560999999999995,7.70284000,6.64295200,9.60378402,86.61192063,90.00000000,90.00000000
5277,NbTlCl4O,2.1768,8.08540700,13.05887300,15.33044700,90.00000000,90.00000000,90.00000000
5278,Sr2CoSe2(ClO3)2,2.1780999999999997,6.51151500,12.55251625,10.84900395,92.89149344,90.00000000,90.00000000
5279,CaCo2Te3(ClO4)2,2.1795999999999998,9.29151800,6.59413200,19.17023824,73.60604093,90.00000000,90.00000000
5280,XeO3,2.1554,5.53131500,6.15503000,8.25016200,90.00000000,90.00000000,90.00000000
5281,Ag3N5O6,2.1632,7.38748687,7.38748687,9.32769600,90.00000000,90.00000000,130.66298577
5282,P2H19C6I2NCl4,2.156,11.14984700,12.56009900,15.43278236,67.82050340,90.00000000,90.00000000
5283,CsSbCl6,2.1552000000000002,7.23697425,7.23697425,12.93378365,78.88389107,78.88389107,55.82277302
5284,GeI2,2.165,4.16136988,4.16136988,8.56421200,90.00000000,90.00000000,119.99999815
5285,SiSe2,2.1816999999999998,7.03824680,7.03824680,7.03824680,130.15280481,124.09750027,78.14525844
5286,P4Se3,2.1677,10.44851700,12.72890700,28.44654400,90.00000000,90.00000000,90.00000000
5287,RbNa11(WN3)4,2.1755999999999998,11.76566800,12.26677200,12.59264700,90.00000000,90.00000000,90.00000000
5288,Tl4CdI6,2.1712,9.40473800,9.40473800,9.96461400,90.00000000,90.00000000,90.00000000
5289,BaThBr6,2.1837999999999997,4.38756400,9.66950400,13.42086000,90.00000000,90.00000000,90.00000000
5290,Ga2BiSe4,2.1790000000000003,7.94781400,7.94781400,12.80106500,90.00000000,90.00000000,90.00000000
5291,Ca5(SiN3)2,2.1805000000000003,5.79064196,5.79064196,12.77704047,81.36425277,81.36425277,63.24178478
5292,Cs3Nd(PS4)2,2.1845000000000003,7.04320400,15.69994400,20.38939760,50.06205824,90.00000000,90.00000000
5293,CsUV3O11,2.1691,6.90933400,12.06167900,12.64290798,73.35560780,90.00000000,90.00000000
5294,Cs3Sm(PS4)2,2.1903000000000006,7.02327500,15.65281200,20.27238464,50.26600143,90.00000000,90.00000000
5295,Cs4UC3O11,2.1618,7.64875989,7.64875989,13.17924530,87.62763964,87.62763964,79.41169020
5296,PbI2,2.1597999999999997,29.88464430,29.88464430,29.88464382,8.96159697,8.96159697,8.96159820
5297,NbPO5,2.1648,5.44111700,6.81240100,11.47289500,90.00000000,90.00000000,90.00000000
5298,Li7VN4,2.1877,6.77831300,6.77831300,4.89458700,90.00000000,90.00000000,90.00000000
5299,Gd2MoO6,2.1883000000000004,10.07504334,10.07504334,5.47713943,75.07873598,75.07873598,68.23311713
5300,GePb5O7,2.1679999999999997,9.55875700,11.88163100,17.66468600,90.00000000,90.00000000,90.00000000
5301,Na2Li(H2N)3,2.1905,6.36093600,6.36093600,11.29906700,90.00000000,90.00000000,90.00000000
5302,RbU2H5C4O15,2.169,13.94114400,5.73160200,9.57018201,83.38251249,90.00000000,90.00000000
5303,Rb2Cr2As2O9,2.1846,5.79671900,8.72752000,18.77150100,90.00000000,90.00000000,90.00000000
5304,TePb2O5,2.1878,7.26527782,7.26527782,7.65945779,59.15251865,59.15251865,47.39780778
5305,TeHO3,2.1767,8.27137800,4.91138600,12.06611057,87.67387459,90.00000000,90.00000000
5306,H2W2O7,2.1833,7.40259409,7.40259409,7.40259409,120.56949536,119.66231073,89.80116876