,pretty_formula,bandgap,cell_length_a,cell_lentgh_b,cell_lentgh_c,cell_angle_alpha,cell_angle_beta,cell_angle_gamma
10053,Ge(PO2)3,2.5454,7.92491231,7.92491231,7.92491236,104.67746692,104.67746692,104.67746911
10054,TmScO3,2.5715999999999997,4.00167900,4.00167900,4.00167900,90.00000000,90.00000000,90.00000000
10055,Al(ClO2)3,2.5401000000000002,7.10879872,7.10879872,7.10879915,104.25225845,104.25225845,104.25226366
10056,BaCdAs2O7,2.5644,5.92347600,7.47071940,7.90110157,100.57598044,90.72317242,97.34879163
10057,Ba3TaFe3(SiO7)2,2.5772,8.66028628,8.66028628,5.31484900,90.00000000,90.00000000,120.00000212
10058,Bi3Te4(ClO2)5,2.5494999999999997,8.03666632,8.03666632,13.59025018,82.30885790,82.30885790,29.62449222
10059,SmBN2,2.5435000000000003,7.32179775,7.32179775,7.32179820,110.67906573,110.67906573,110.67906883
10060,Ag2S2O7,2.5401,6.94672400,7.02228617,7.08549459,63.52568612,86.67028634,86.26000398
10061,Mn3TeP2Pb3O14,2.5484999999999998,8.64861071,8.64892496,10.83240101,89.99762517,89.99653889,119.99973093
10062,BaNdInO4,2.5713,6.12815500,8.36845600,9.23681558,76.60178317,90.00000000,90.00000000
10063,Te2Pb3(BrO3)2,2.5348,9.08830129,9.08830129,11.25645594,75.76773866,75.76773866,37.04130818
10064,K2PtC4(N2Cl)2,2.5585,9.34113200,7.21300000,8.66528607,73.49324316,90.00000000,90.00000000
10065,Mn4SiTeCl2O7,2.5326,5.54159978,6.52290339,12.90611323,90.06629384,93.79542099,90.12666897
10066,CsBa2SnS4Cl,2.5544000000000002,8.97425700,10.12217600,12.78173537,89.12268382,90.00000000,90.00000000
10067,Hg2Te4Xe3(O2F13)2,2.5668,18.60583000,9.41906600,10.24656959,57.63678503,90.00000000,90.00000000
10068,VPbOF5,2.5426,5.02995600,9.48789400,9.99256700,90.00000000,90.00000000,90.00000000
10069,LaV2IO9,2.5572,7.17842500,7.36772400,14.87552900,90.00000000,90.00000000,90.00000000
10070,B20H30C2S,2.5758,7.34617820,10.91967098,27.79895230,90.00000000,90.00000000,97.23840480
10071,Ga2PbS4,2.5564999999999998,14.80998835,12.25379237,12.04080265,75.11546411,53.09549848,51.78903741
10072,Sr2V3Se5O18,2.5648999999999997,9.20445900,10.81885900,17.25973800,90.00000000,90.00000000,90.00000000
10073,CuH6C2SeCl,2.5682,6.88454400,7.29126200,11.40249336,82.32876734,90.00000000,90.00000000
10074,Ba6Y2Fe4O15,2.5563000000000002,6.07213300,8.16756900,18.70458687,88.90482305,90.00000000,90.00000000
10075,La2Mo4O15,2.5701,13.26232529,14.09228656,20.35819559,95.25798180,90.00000000,90.00000000
10076,B2Pb6WO12,2.5587999999999997,9.97812280,9.97812280,12.03745600,90.00000000,90.00000000,142.03615700
10077,CoAs2S4(O2F3)4,2.5374000000000003,14.01171400,8.81908900,15.34401104,81.24192968,90.00000000,90.00000000
10078,Rb2Mo3SeO12,2.5372000000000003,7.38804109,7.38804109,12.36147900,90.00000000,90.00000000,119.99999181
10079,K5NaFe2(CO2)12,2.5346,13.80314029,13.80314029,13.80314029,90.00000000,90.00000000,90.00000000
10080,Sb2H8C3SCl6O5,2.5599,33.27772900,6.55386600,9.03519267,68.60092662,90.00000000,90.00000000
10081,Sb2HCSCl6O5F3,2.5456000000000003,10.02182600,9.62480900,18.22168187,72.23961394,90.00000000,90.00000000
10082,CaCrBi12(Mo2O17)2,2.5649999999999995,5.86616400,11.80423300,25.26562977,77.90692292,90.00000000,90.00000000
10083,MoH12C4S2(BrO2)2,2.5383,13.21444000,8.41950700,15.64637251,58.39271942,90.00000000,90.00000000
10084,NaUN3O11,2.5372,10.80357500,10.80357500,10.80357500,90.00000000,90.00000000,90.00000000
10085,Bi8(MoO7)3,2.5347,5.72249600,8.73995400,40.39450252,79.33342042,90.00000000,90.00000000
10086,Ba2CaV2CoF14,2.5564,7.46869501,7.46869501,15.26526337,88.90137298,88.90137298,42.62591071
10087,V2Pb2Se2O11,2.5376,6.99437000,7.31086691,10.06454973,96.42228181,93.90733643,95.41164790
10088,Ba2ScNbO6,2.5719,5.89311842,5.89311842,5.89311842,60.00000000,60.00000000,60.00000000
10089,TmTa5Ag2O15,2.5375000000000005,12.59018500,12.59018500,3.91530500,90.00000000,90.00000000,90.00000000
10090,Tl5V3O10,2.5544000000000002,8.45936700,8.45936700,19.58281300,90.00000000,90.00000000,90.00000000
10091,TbTa5Ag2O15,2.5448999999999993,12.61404000,12.61404000,3.92003500,90.00000000,90.00000000,90.00000000
10092,Sb3IO4,2.5352,4.63616200,16.08509000,19.29135500,90.00000000,90.00000000,90.00000000
10093,Sb3IO4,2.5661,4.60082600,18.70892500,19.27797232,59.14358099,90.00000000,90.00000000
10094,RbMo3Cl7,2.577,12.48731347,12.48731347,9.52034990,69.77161819,69.77161819,74.67141237
10095,Nb2Fe4O9,2.5776000000000003,5.34490927,5.34490927,14.26238400,90.00000000,90.00000000,119.99999099
10096,NdCrGeO5,2.5595000000000003,5.87993700,7.58483500,8.63670600,90.00000000,90.00000000,90.00000000
10097,Na2MgVF7,2.5552,7.41530269,7.41530269,7.41530269,120.83949542,118.72205113,90.38984977
10098,Na2Al2Si3(HO5)2,2.5478,12.92439321,9.89103534,9.58096515,83.15546630,49.45059077,47.39394294
10099,LuTa5Ag2O15,2.5773999999999995,12.57437900,12.57437900,3.91227600,90.00000000,90.00000000,90.00000000
10100,LaIn2Cl5,2.575,8.20313400,9.00218200,13.03998300,90.00000000,90.00000000,90.00000000
10101,K2ScSn(AsO4)3,2.5700000000000003,10.57720700,10.57720700,10.57720700,90.00000000,90.00000000,90.00000000
10102,K2GdCl5,2.5717,8.12346100,8.68653600,13.07364400,90.00000000,90.00000000,90.00000000
10103,Gd3W(ClO2)3,2.5352,9.22050786,9.22050786,5.33336600,90.00000000,90.00000000,119.99999898
10104,HC12N3F10,2.5427,10.41658100,10.33185900,13.12829426,86.03163256,90.00000000,90.00000000
10105,DyTa5Ag2O15,2.5613,12.59470000,12.59470000,3.91669800,90.00000000,90.00000000,90.00000000
10106,DyCrGeO5,2.5682,5.81111500,7.45330400,8.48639000,90.00000000,90.00000000,90.00000000
10107,ErTa5Ag2O15,2.5413999999999994,12.59337300,12.59337300,3.91627400,90.00000000,90.00000000,90.00000000
10108,CdCo(PO3)4,2.5626,7.49244695,7.49244695,10.12263100,67.23747921,67.23747921,70.76875407
10109,BaVCdF7,2.5327,7.60038597,7.60038597,15.37822554,88.28378064,88.28378064,42.64289387
10110,CaH8C6S2(NO4)2,2.559,7.37880400,8.17555915,11.77927714,92.14956788,101.88365976,114.81550834
10111,Ba5Tm2ZrAl2O13,2.5569,6.00699365,6.00699365,25.06399500,90.00000000,90.00000000,119.99999614
10112,Ba5Lu2ZrAl2O13,2.5528999999999997,5.97534203,5.97534203,24.92053100,90.00000000,90.00000000,120.00000030
10113,Ba2Sr5B4S13,2.5482,12.82849506,12.82849506,9.90723012,89.93537862,89.93537862,134.49206365
10114,AsSe(BrF2)3,2.5742000000000003,10.04823800,8.05951500,12.45337314,80.61473687,90.00000000,90.00000000
10115,Zn2SiGeN4,2.5507999999999997,5.15309300,5.40144800,6.40616040,89.83241872,90.00000000,90.00000000
10116,Zr3Ti2(PbO3)5,2.5591,14.91403700,14.91403700,4.26645250,88.72172605,88.72172605,22.43061625
10117,TlGeSbO5,2.5603000000000002,6.77440600,10.95134100,13.60540600,90.00000000,90.00000000,90.00000000
10118,Tb2AlFeO6,2.5417000000000005,5.45067100,5.25974400,9.15532330,54.82513332,90.00000000,90.00000000
10119,TaMnNbO6,2.5686999999999998,5.14043600,5.86660700,14.61277600,90.00000000,90.00000000,90.00000000
10120,Sr4SeS3,2.5424999999999995,7.50802635,7.50802635,7.51131456,80.38520671,80.38520671,33.55090916
10121,SmPaO4,2.5382000000000007,3.84087000,3.84087000,5.50139500,90.00000000,90.00000000,90.00000000
10122,Sm2ScNbO7,2.5417000000000005,7.46905800,7.46905800,7.46905800,120.52940011,119.35585691,90.10239845
10123,SbC6S2F19,2.5346,9.63056811,9.63056811,10.69653984,66.60896210,66.60896210,73.77700025
10124,Rb2ErTi(PO4)3,2.5652,10.32263400,10.32263400,10.32263400,90.00000000,90.00000000,90.00000000
10125,MgZnS2,2.5488,3.94129200,3.94129200,5.56806700,90.00000000,90.00000000,90.00000000
10126,MnRe(CO)10,2.5404,9.81632716,9.81632716,14.83401500,56.27537654,56.27537654,43.61959935
10127,Mn3Nb8FeO24,2.5342,5.88630500,5.14354500,14.59176320,89.84528456,90.00000000,90.00000000
10128,Mg3Te2Pb6WO18,2.5524000000000004,5.71493038,5.71493038,13.98936300,90.00000000,90.00000000,120.00000440
10129,LiTiSn(PO4)3,2.5396,8.74566895,8.74566895,8.74566921,59.58487523,59.58487523,59.58487496
10130,LiW3O9F,2.5633,7.49193876,7.49193876,8.53472421,77.40816658,77.40816658,120.01314643
10131,Li3Al2CoO6,2.5686,7.57264935,7.57264935,5.08944880,71.38264990,71.38264990,21.81527979
10132,Li2HN,2.5587999999999997,7.15534386,7.15534386,7.15534386,120.46110672,120.32591767,89.31979794
10133,K2CoH4(I2O7)2,2.5696000000000003,8.02335019,14.04944488,8.02398037,75.56947417,60.28108998,75.48842332
10134,Hg2IBr3,2.5679999999999996,4.43688746,4.43688746,13.46992252,88.82991637,88.82991637,71.04801637
10135,H11I(NO3)2,2.5547999999999997,5.54044700,5.54602506,5.55388201,77.76500148,77.61327356,77.87890795
10136,GdTiCdSbO7,2.5349,7.31710818,7.31710818,7.31710818,120.87648097,118.53906242,90.51871810
10137,H6AuN2ClO4,2.5577,7.93144000,8.15634202,11.91085497,71.92879150,73.62642482,66.16529616
10138,GdTiNbBi2O9,2.5751999999999997,5.50872200,5.43065400,12.91968858,78.29209116,90.00000000,90.00000000
10139,La3Gd(BrO)4,2.5635999999999997,4.10789400,4.10789400,15.34292700,90.00000000,90.00000000,90.00000000
10140,K7Mo12H31Pt2O59,2.5534,10.35339100,12.37143876,12.75897263,112.37085838,111.51287217,83.83247098
10141,CsTi3AlO8,2.5721,3.03898000,7.37441633,7.38981516,87.51746371,78.37023537,78.19834130
10142,CaSmCrO4,2.5394999999999994,6.49279236,6.49279236,5.63009400,90.00000000,90.00000000,130.64005683
10143,Ca4Al3CrSiBO14,2.5433,5.05859387,10.95422902,10.83602177,89.79564325,90.58334638,90.85899024
10144,Ca3Fe7(SiO4)6,2.5690000000000004,10.42419710,10.42419710,10.42419710,109.47122063,109.47122063,109.47122063
10145,AlSiAgO4,2.5502,9.22555409,9.22555409,9.22555364,90.20423653,90.20423653,90.20423228
10146,Ba7Ti2Nb4O21,2.5635999999999997,17.04923693,17.04923693,17.04923698,19.79547863,19.79547863,19.79547672
10147,Ba2CeZrO6,2.5740999999999996,4.34974800,4.34974800,8.80017800,90.00000000,90.00000000,90.00000000
10148,Ba2Li3La3(MoO4)8,2.5385999999999997,5.41076800,7.12630652,19.50864220,89.28252640,89.65150307,68.11374492
10149,TiO2,2.5686,10.59112424,10.78473697,10.48617575,89.96794575,83.83199623,83.35628195
10150,Ta2O5,2.5694,12.21442545,11.83617908,11.72240413,89.07965010,91.31480300,91.14880024
10151,Mg(AlS2)2,2.5721,7.24031189,7.24026318,7.24056161,60.00085418,59.99890683,60.00077091
10152,Ca2AlSbO5,2.5457,8.50374627,8.50374627,5.53496325,75.02671619,75.02671619,41.49986895
10153,CaCr(SiO3)2,2.5566999999999998,5.46075900,9.70125100,19.28602100,90.00000000,90.00000000,90.00000000
10154,ZnCo(SiO3)2,2.5672,5.38702497,9.36536993,9.30700639,90.00612544,89.99385714,99.91226502
10155,Fe(HO)2,2.5359,3.32141219,5.69705185,10.01284599,94.69620054,99.56235555,73.06170349
10156,Co(HO)2,2.5473,3.21962555,5.55468395,10.04680692,106.20897939,80.16621912,90.27651683
10157,MgSe,2.5473000000000003,4.24300273,4.24300273,4.24300273,60.00000000,60.00000000,60.00000000
10158,PrCuO2,2.5563999999999996,6.13132401,6.13132401,6.13132386,36.09969681,36.09969681,36.09969908
10159,Th(PS3)2,2.5564,7.11446300,7.11446300,9.90323800,90.00000000,90.00000000,90.00000000
10160,TiO2,2.5534000000000003,4.58538800,4.93503500,5.58117100,90.00000000,90.00000000,90.00000000
10161,NaBS2,2.5684,9.14413248,9.14413248,9.14413267,112.56690432,112.56690432,112.56690270
10162,RbSnAsO5,2.5585,6.92512000,11.12054100,13.87581500,90.00000000,90.00000000,90.00000000
10163,Rb2TaAgS4,2.5595,13.92720260,12.41833005,7.60170421,84.51887534,62.57109683,32.91002783
10164,Mg(MoO2)2,2.543,6.19165115,6.43639150,6.18917369,90.32601178,117.17587643,121.09290250
10165,Fe4OF6,2.5458999999999996,5.18163590,7.10874785,7.10792453,90.02447579,89.69845967,90.51390528
10166,Li5MnO3F,2.5325,4.73430048,9.46180887,9.47473167,89.92355464,90.20177451,90.06959670
10167,ZnCrP2O7,2.5633000000000004,6.44667756,7.27063540,6.37364975,74.79202213,81.14247757,70.20845700
10168,Li2CrFe(PO4)2,2.5715,4.77438757,10.77876374,5.98070252,90.54030027,89.68198597,91.50414125
10169,Nd2Mo4O15,2.5664999999999996,9.62446400,11.22211955,11.77715722,104.46191729,109.42847958,108.84862722
10170,CaS,2.5596,4.04199207,4.04199207,4.04199207,60.00000000,60.00000000,60.00000000
10171,Tl2CrO4,2.5422000000000002,5.97377100,8.09323400,11.26436700,90.00000000,90.00000000,90.00000000
10172,V2Zn2O7,2.5585,5.70219231,5.70219231,10.28343385,75.62167657,75.62167657,94.91703688
10173,KGaS2,2.5331,7.47782759,7.47782759,15.02263631,82.83977858,82.83977858,89.97786240
10174,Nb2Zn4O9,2.5325,5.26038608,5.26038608,14.38239300,90.00000000,90.00000000,120.00000098
10175,CaGa4O7,2.5387,8.08287458,8.08287458,5.68093553,78.09238908,78.09238908,69.54170341
10176,NaAl6Fe3Si6B3O30F,2.5560000000000005,9.56705400,9.56705400,9.56705357,113.73276201,113.73276201,113.73275706
10177,Na2Ge2S5,2.5464,9.24518496,9.24518496,10.71704200,90.00000000,90.00000000,90.97469154
10178,Sr2CaMoO6,2.5556,5.95549100,5.80884900,10.09765912,55.05620848,90.00000000,90.00000000
10179,NdCrO3,2.54,5.47875000,5.62400900,7.82071600,90.00000000,90.00000000,90.00000000
10180,TiFeO3,2.5730000000000004,5.19840935,5.52177197,5.19711073,90.01277699,60.00543144,61.96645431
10181,DyCrO3,2.5424999999999995,5.30493100,5.61194800,7.65528000,90.00000000,90.00000000,90.00000000
10182,Rb2MnV2O7,2.5648999999999997,8.75817000,8.75817000,12.05909800,90.00000000,90.00000000,90.00000000
10183,Na2V(PO4)2,2.5730000000000004,13.62592300,6.37217900,7.82323490,80.26495072,90.00000000,90.00000000
10184,LaCuO2,2.5664000000000007,6.09448628,6.09448628,6.09448671,36.90350558,36.90350558,36.90349777
10185,BiI3,2.5587,8.92633861,8.92633861,8.92633880,52.06330062,52.06330062,52.06330652
10186,Bi2TeO5,2.5328000000000004,8.85540188,8.85540188,11.71846300,90.00000000,90.00000000,143.08132064
10187,Rb2AgI3,2.5762,4.98677100,10.55360700,20.38396300,90.00000000,90.00000000,90.00000000
10188,CsIO4,2.5559,6.02692400,6.17717100,14.83520900,90.00000000,90.00000000,90.00000000
10189,RbMgH3,2.5465999999999998,5.92870599,5.92870599,14.37280800,90.00000000,90.00000000,119.99999993
10190,TbAg3H6C6(N2O)3,2.5766999999999998,6.77564861,6.77564861,18.43071900,90.00000000,90.00000000,120.00000596
10191,Fe2P2H9NO11,2.5584,9.80683700,9.93411200,12.37384032,52.14482408,90.00000000,90.00000000
10192,H4INO4,2.5346,7.58224839,7.58224839,7.58224839,131.24164100,131.24164100,71.42944236
10193,LiTi2(PO4)3,2.5463,8.70179300,8.60881000,14.73069005,54.90698888,90.00000000,90.00000000
10194,LiFe(PO3)4,2.5709,7.00978397,7.00978397,9.61674460,88.83306369,88.83306369,109.49071347
10195,LiMn4(PO4)3,2.5513999999999997,8.94278416,8.94278416,6.62553350,72.25244687,72.25244687,96.57501779
10196,LiFe2P5O16,2.5685,6.79328600,5.07744600,18.80484303,89.98101500,90.00000000,90.00000000
10197,Li3Co2P5O16,2.5576999999999996,6.93199000,5.05767900,18.20156259,87.62632417,90.00000000,90.00000000
10198,Li3Mo3(PO4)4,2.5496999999999996,8.39285600,9.15291799,13.03439537,94.17702804,90.29617292,90.02660431
10199,LiSnPO4,2.5567,7.95763160,7.95763160,10.27308400,90.00000000,90.00000000,119.99999664
10200,LiFeP2O7,2.5465000000000004,8.20617500,6.81021500,9.43635693,72.50445173,90.00000000,90.00000000
10201,Li7Fe4P9O32,2.5665,13.85717700,13.85717700,6.38794800,90.00000000,90.00000000,90.00000000
10202,Na6MnCl8,2.5775,8.00981288,8.00981288,8.00981288,60.00000000,60.00000000,60.00000000
10203,Mg(SbO2)2,2.5511,8.59154900,8.59154900,6.07501000,90.00000000,90.00000000,90.00000000
10204,KNb3O8,2.5526,11.04556664,11.04556664,9.10488200,90.00000000,90.00000000,159.94566633
10205,RbInI4,2.5376000000000003,15.12317452,15.12317452,15.12317463,115.18210018,115.18210018,115.18210562
10206,Ba5(GaS4)2,2.5334,12.93405243,12.93405243,12.02954700,90.00000000,90.00000000,123.30877270
10207,V2Zn4O9,2.5433,8.30461900,9.82809200,10.51578540,62.83015234,90.00000000,90.00000000
10208,KSiH3,2.5734000000000004,5.42133500,6.89965700,8.89004400,90.00000000,90.00000000,90.00000000
10209,Na3PS4,2.552,7.01933500,7.01933500,7.15256600,90.00000000,90.00000000,90.00000000
10210,TcO2F3,2.5594,8.07179300,8.11233211,11.96838513,88.69128809,89.72795332,85.09835151
10211,Sr(BiO2)2,2.5682,10.36901392,10.36901392,6.43951780,83.19007594,83.19007594,24.41829731
10212,S2N2Cl,2.5722,7.05977600,9.95575000,14.06961563,69.26344140,90.00000000,90.00000000
10213,KNO2,2.5629,9.72633000,4.56160000,7.26702855,70.49814296,90.00000000,90.00000000
10214,Te6Br2O11,2.5327,6.96858030,6.96858030,15.93843600,90.00000000,90.00000000,119.71568252
10215,Ba4Ti13O30,2.5353000000000003,9.97681667,9.97681667,14.20742800,90.00000000,90.00000000,119.96590326
10216,BrNO3,2.5676,4.31504900,7.28894800,11.58025200,90.00000000,90.00000000,90.00000000
10217,SnBr2,2.5562,4.31220600,9.23329400,10.82036600,90.00000000,90.00000000,90.00000000
10218,AsCl3O,2.5362,6.70106300,8.51237200,10.92701703,68.19071918,90.00000000,90.00000000
10219,B17F27,2.5759,7.41775400,13.37908411,13.77001721,69.56540393,79.57940035,81.16207719
10220,NaClO2,2.5768,4.67581364,4.67581364,6.53765800,71.55918568,71.55918568,89.60610476
10221,AlBiBr6,2.5722,8.13529200,8.25714365,10.00004713,102.23478772,105.65156446,97.31510575
10222,Mg2SnO4,2.5338,6.18023194,6.18023194,6.18023194,120.61164352,118.71278093,90.59385428
10223,Na2CeO3,2.5761000000000003,4.27033800,4.27033800,4.68858100,90.00000000,90.00000000,90.00000000
10224,Ho10Ti6O27,2.5593000000000004,7.39899491,7.39899491,12.49936372,72.14272887,72.14272887,58.69490587
10225,Dy10Ti6O27,2.5756,7.42739033,7.42739033,12.55316637,72.04427981,72.04427981,58.67671621
10226,BaSm4Si3SeO12,2.5407,10.04316609,10.04316609,6.97645700,90.00000000,90.00000000,120.00000063
10227,Ca3Ti2O7,2.5472000000000006,10.11364521,10.11364521,5.53728700,90.00000000,90.00000000,148.66161928
10228,BaLaTaZnO6,2.5766,5.77319029,5.77319029,5.77319029,60.00000000,60.00000000,60.00000000
10229,MgGeO3,2.5362,6.64847680,6.64847680,5.23244092,81.87577436,81.87577436,85.94575449
10230,NiTe2O5,2.5697,8.51573800,9.01926800,12.30252100,90.00000000,90.00000000,90.00000000
10231,Cs2Sn(H2N)6,2.54,7.03636179,7.03636179,6.00198700,90.00000000,90.00000000,119.99999803
10232,Nb2Te4O13,2.5627999999999997,7.71848800,12.96527888,13.00440468,116.19756057,90.28873582,90.20486435
10233,SrV3O7,2.5570000000000004,5.36933100,5.66598700,10.61440500,89.99998449,90.00002147,89.99997922
10234,B8O,2.5541,5.31877700,7.35855700,10.27196491,87.60457924,90.00000000,90.00000000
10235,Sc11Nb3O24,2.5324999999999998,6.13825400,6.16848239,23.82119485,92.98267829,92.89380511,99.26060915
10236,BS2,2.5545,4.92292800,12.45863300,21.91559105,72.12908114,90.00000000,90.00000000
10237,SrIn2O4,2.534,3.32088100,9.97032500,11.66486100,90.00000000,90.00000000,90.00000000
10238,Na2Nb4O11,2.5717,12.94249259,12.94249259,12.94249272,28.20928009,28.20928009,28.20927979
10239,Ca2GeS4,2.5615,6.36448500,8.24701300,13.82406500,90.00000000,90.00000000,90.00000000
10240,Cs2Sn2O3,2.5496999999999996,6.21534000,9.17799800,13.96071500,90.00000000,90.00000000,90.00000000
10241,KTi2(PO4)3,2.5339,9.20171076,9.20171076,9.20171105,54.97645340,54.97645340,54.97645423
10242,CdH4Br3N,2.5488,4.39002800,9.21381400,16.16450400,90.00000000,90.00000000,90.00000000
10243,P2S5,2.5773,9.67888900,9.82382003,9.82486725,92.89432645,109.71183665,100.66057628
10244,ZnHgC4(SN)4,2.5343,8.31875487,8.31875487,8.31875487,94.68401984,94.68401984,146.79106633
10245,SrV3O7,2.5606999999999998,5.37594600,10.58123700,11.38875700,90.00000000,90.00000000,90.00000000
10246,LiGaAs2O7,2.5453,5.36613995,5.36613995,4.77544062,81.21420597,81.21420597,102.05739831
10247,Sr2NiTeO6,2.5601,6.29575724,6.29575724,6.29575724,128.44945161,128.04925151,76.22188077
10248,Cs4Sb2O5,2.5754,6.48203386,6.48203386,8.30319522,83.52058803,83.52058803,65.98084732
10249,Li9Fe3P8O29,2.5478,9.86157074,9.86157074,13.76563700,90.00000000,90.00000000,120.00000499
10250,Ti3Tl3(PO4)5,2.5328,6.40304600,14.94300500,18.52175000,90.00000000,90.00000000,90.00000000
10251,ZrHg3(SCl3)2,2.5687,7.54457600,6.78409000,13.28434328,88.52742530,90.00000000,90.00000000
10252,LaNb2ClO6,2.5681000000000003,7.40815200,8.43792100,9.95731400,90.00000000,90.00000000,90.00000000
10253,Li2Ga2GeS6,2.556,13.06574094,12.02294295,7.06313358,81.96989602,65.66695042,32.36315356
10254,Tl4Mo5O17,2.5425,7.96939000,11.04753115,11.18268017,73.98282043,80.63286198,80.40709521
10255,Tl3CO3F,2.5484999999999998,6.24972800,7.62867100,7.64527269,60.10808876,90.00000000,90.00000000