,pretty_formula,bandgap,cell_length_a,cell_lentgh_b,cell_lentgh_c,cell_angle_alpha,cell_angle_beta,cell_angle_gamma
3036,Na2LiBiI6,2.0294,8.47708035,8.47708035,8.47708035,60.00000000,60.00000000,60.00000000
3037,Na2InGaF6,2.0339,6.32927037,6.32927037,6.32927037,60.00000000,60.00000000,60.00000000
3038,Rb2LiBiI6,2.0366999999999997,8.57594802,8.57594802,8.57594802,60.00000000,60.00000000,60.00000000
3039,NaVF3,2.0187,5.55786000,5.80643600,7.98550600,90.00000000,90.00000000,90.00000000
3040,CsSiI3,2.0297,6.13359212,6.13359212,6.13359198,87.52193411,87.52193411,87.52193314
3041,ZnSi4WO10,2.0197,7.42830500,7.42830500,15.13223000,90.00000000,90.00000000,90.00000000
3042,Ho3TaO7,2.0398,8.10578643,8.10578643,5.35719000,90.00000000,90.00000000,125.43574997
3043,SrLiTi4CrO11,2.0336000000000003,5.86114600,10.00468200,13.98079800,90.00000000,90.00000000,90.00000000
3044,Os(OF2)2,2.0343999999999998,9.52358651,9.52358651,11.78354000,90.00000000,90.00000000,120.00000354
3045,Na2CeO3,2.0463,7.64928008,7.64928008,18.38083542,83.18441494,83.18441494,85.44007675
3046,Li4Mn3Fe2Sn(PO4)6,2.0305,8.59133100,8.66461119,8.70287830,62.88448522,63.30426355,63.29043952
3047,Li2VFe(P2O7)2,2.0322000000000005,7.04114515,9.79332923,8.26146084,90.23616643,89.64390654,108.67199378
3048,Li2MnPCO7,2.0377,6.47671300,9.56070800,10.03378855,62.49590522,90.00000000,90.00000000
3049,Li2FeBO4,2.0273,4.89167600,6.42597300,9.92864450,89.66225304,90.00000000,90.00000000
3050,Li12V3NiP4(CO7)4,2.0410999999999997,6.59350800,8.45175800,9.97812751,84.70989285,90.00000000,90.00000000
3051,KLiSnO2,2.0381,7.11384346,7.11384346,10.00257611,54.29837315,54.29837315,27.55683129
3052,Cs2MgO2,2.0297,6.78398700,10.06912700,16.71256841,63.10303704,90.00000000,90.00000000
3053,NClO3,2.0356,5.03439564,5.03439564,3.99731630,81.68647511,81.68647511,108.20341218
3054,FePH6(NO2)2,2.0469999999999997,10.19092400,6.47379000,9.79112679,51.45195522,90.00000000,90.00000000
3055,FeHO2,2.0167,12.84878800,2.97570500,4.69376025,89.88028785,90.00000000,90.00000000
3056,C3IN,2.0467,8.67259700,6.04285100,6.83819641,65.76728626,90.00000000,90.00000000
3057,SrHN,2.0279,3.94514500,5.72302300,7.57366100,90.00000000,90.00000000,90.00000000
3058,Li2In2GeS6,2.0328999999999997,7.16995589,7.16995589,12.33605232,72.70399564,72.70399564,60.48643531
3059,DyMoBrO4,2.0354,6.93232600,7.28732403,11.06111886,105.47948260,107.32328266,92.97116823
3060,Na3SbSe3,2.0196,9.09063400,9.09063400,9.09063400,90.00000000,90.00000000,90.00000000
3061,TbMoBrO4,2.0463,6.94481000,7.31622817,11.10053630,105.62111680,107.28752539,92.73718943
3062,Bi26Mo10O69,2.0208999999999997,5.92003900,11.90689716,25.51111554,102.20462719,90.38862476,89.99069844
3063,Cd3BPO7,2.0427,5.16941200,8.98056200,13.49492300,90.00000000,90.00000000,90.00000000
3064,Ba8Sn4S15,2.0442,8.66957269,25.74745536,29.13099517,90.00000000,90.00000000,90.00000000
3065,Sm4(GeS4)3,2.0325,11.46093107,11.46093107,11.46093093,114.81760152,114.81760152,114.81759775
3066,Cr3P2H40(C8O5)2,2.0212,14.91996257,14.94927710,15.31831261,90.00000000,97.00920751,90.00000000
3067,CdBiBF10,2.0414000000000003,9.61984700,8.57375500,9.23542042,85.70778959,90.00000000,90.00000000
3068,BaSm2Ti3O10,2.0195000000000003,14.41278764,14.41278764,7.65882600,90.00000000,90.00000000,164.42889508
3069,Cs5Th(PS4)3,2.0219,10.49922900,13.89843900,19.06935197,79.25502009,90.00000000,90.00000000
3070,Fe2B(PO4)3,2.0289,8.12703992,8.12703992,7.51286800,90.00000000,90.00000000,119.99999931
3071,SiC,2.0168999999999997,3.09206746,3.09206746,43.05838988,87.94232246,87.94232246,60.00000134
3072,Si3Pb11O17,2.0446999999999997,7.47389200,13.31018991,22.96699117,100.46736821,99.30225104,92.47206952
3073,Rb4V2S4O19,2.0333,8.02995400,11.05879475,12.29071908,77.86139780,76.53285887,71.87223102
3074,P2S7,2.0353,11.46936600,6.71745800,13.09293406,85.97496393,90.00000000,90.00000000
3075,V4Cd9O19,2.036,8.74566000,8.76980585,13.16380228,95.59100795,102.51467110,108.48391949
3076,Cs4FeO4,2.0446,7.06693000,11.15975200,11.70258268,80.46426799,90.00000000,90.00000000
3077,Co2BiB(PO5)2,2.0231000000000003,5.12069581,6.50527929,11.39021600,90.00047769,89.99863787,107.90028447
3078,UH16C4(NO3)2,2.0359,7.14425600,7.83655200,9.90572390,77.59693144,90.00000000,90.00000000
3079,BeH48C20I6(N2O)4,2.0476,11.67209067,11.67209067,19.59155727,92.72099636,106.06710697,117.11461504
3080,TaBr5,2.0349,14.44005249,14.44005249,6.79195278,89.23461215,89.23461215,85.27344357
3081,GdV(SeO4)2,2.0256999999999996,7.05858400,6.83617700,13.63509505,88.76136524,90.00000000,90.00000000
3082,RbUC3O8,2.0163,9.02784900,8.11562400,12.19863733,65.33816814,90.00000000,90.00000000
3083,H16PdC4S4(N4Cl)2,2.0399,8.43135000,13.23605100,15.44128200,90.00000000,90.00000000,90.00000000
3084,Rb6InP3S14,2.0216000000000003,11.57498497,11.57498497,13.38411063,74.19977220,74.19977220,58.27595156
3085,Gd2Si4CN6,2.0292000000000003,10.01411800,5.99959800,12.01640508,60.42799393,90.00000000,90.00000000
3086,Ba8CaY2U4O24,2.0349,10.78155793,10.78155793,10.78155793,132.00743051,132.00743051,70.21729146
3087,KMnIO6,2.0298,5.12804591,5.12804591,12.25657500,90.00000000,90.00000000,119.99999880
3088,Lu2SeO2,2.0255,3.75204004,3.75204004,6.71051500,90.00000000,90.00000000,120.00000067
3089,VCdPHO6,2.0364,6.91560200,5.47525200,7.37614463,76.49786521,90.00000000,90.00000000
3090,TlSO4,2.0355,9.23854588,9.23854588,9.23854627,31.59421867,31.59421867,31.59421786
3091,SrHfS3,2.0461,6.78380900,7.11407100,9.77817300,90.00000000,90.00000000,90.00000000
3092,PNO4,2.0244,6.93678729,6.93678729,6.93678729,96.44089926,96.44089926,140.86340519
3093,Pr7(S2Cl3)3,2.0232000000000006,6.77543000,7.06876800,24.68605443,82.22902213,90.00000000,90.00000000
3094,Na4Sn2Ge5HO16,2.0423999999999998,5.45086600,7.05531500,21.25897824,73.94298203,90.00000000,90.00000000
3095,K2Ge2O3,2.0417,7.06897220,7.06897220,7.06897220,109.47122063,109.47122063,109.47122063
3096,Gd2MgPtO6,2.0334,5.73985800,5.43008100,9.47354832,55.37491306,90.00000000,90.00000000
3097,CaCoGeO4,2.0391000000000004,5.05885500,6.47101000,11.39348800,90.00000000,90.00000000,90.00000000
3098,C8Cl5,2.0397,8.05651600,10.96545400,23.96669961,65.33633326,90.00000000,90.00000000
3099,Ba5Re3IO15,2.0357000000000003,11.22968433,11.22968433,7.99262900,90.00000000,90.00000000,120.00000194
3100,Y6Mg(SiS7)2,2.0455000000000005,9.95619853,9.95619853,5.62041100,90.00000000,90.00000000,120.00000349
3101,Y6Zn(SiS7)2,2.0343,9.93633292,9.93633292,5.63403100,90.00000000,90.00000000,120.00000616
3102,Tl4Br3Cl,2.0159,4.01614200,4.01614200,16.09554400,90.00000000,90.00000000,90.00000000
3103,Tl5Re6Se8Cl7,2.016,18.45486650,18.45486650,18.45486590,30.11406217,30.11406217,30.11406066
3104,Ti3Fe(BiO3)5,2.0462,5.53442800,5.48607100,20.96113527,82.48065682,90.00000000,90.00000000
3105,NaS2,2.0397,9.10073115,9.10073115,9.10073115,115.64449691,115.64449691,97.72554550
3106,SrCaTi2O6,2.0260000000000002,5.54473021,5.54473021,7.78643400,90.00000000,90.00000000,90.72437174
3107,Sr3Ca(NCl)2,2.0231,7.36772388,7.36772388,6.67312603,81.34313183,81.34313183,30.29875745
3108,Sr3TiNb4O15,2.0422000000000002,12.61685500,4.00969500,12.64955209,89.80389617,90.00000000,90.00000000
3109,Si2P3RhO13,2.0387999999999997,8.22077253,8.22077253,8.84205900,90.00000000,90.00000000,120.00000425
3110,Pr6Mg(GeS7)2,2.0186,10.29496146,10.29496146,5.84403300,90.00000000,90.00000000,119.99999653
3111,Pr6Cd(GeS7)2,2.0194000000000005,10.33296955,10.33296955,5.84286300,90.00000000,90.00000000,119.99999714
3112,NdZrNO2,2.0258999999999996,5.95500500,5.76623400,9.98562589,55.43193496,90.00000000,90.00000000
3113,Nd6Cd(GeS7)2,2.0452000000000004,10.26560636,10.26560636,5.82102900,90.00000000,90.00000000,120.00000234
3114,NaCoH3(CO2)3,2.0443,7.88601006,7.88601006,9.07196648,55.08203686,55.08203686,70.58718052
3115,Mg3MnNi3O8,2.0332999999999997,5.94826563,5.94826563,5.94826585,60.51667304,60.51667304,60.51667251
3116,KNaNb2O6,2.0319,4.00250500,4.08376200,8.16265028,89.61499761,90.00000000,90.00000000
3117,KNa2WN3,2.0294999999999996,6.30960500,12.18346700,12.52177200,90.00000000,90.00000000,90.00000000
3118,Ho2ScNbO7,2.0336000000000003,7.35502639,7.35502639,7.35502639,120.76160533,119.37150453,89.88898631
3119,K4NaNb5O15,2.0384,4.01148100,5.78992600,29.13265568,89.24957649,90.00000000,90.00000000
3120,Ce2ThO6,2.0332,3.90688914,3.90688914,9.54012300,90.00000000,90.00000000,119.99998548
3121,Cd5Si(PO6)2,2.0399000000000003,6.83631300,10.32214100,15.17565800,90.00000000,90.00000000,90.00000000
3122,BaTiFe3(BiO4)3,2.0415,9.98012454,9.98012454,9.98012428,32.99552780,32.99552780,32.99552717
3123,BaLa4TiCr4O15,2.0412999999999997,3.95451271,5.60063968,14.16342727,78.59164244,89.99966151,90.00065514
3124,Ba8Sr(BN2)6,2.0355000000000003,8.04780600,8.04780600,8.04780600,90.00000000,90.00000000,90.00000000
3125,Ba6Ti5PtO18,2.0169,5.79134398,5.79134398,14.24697100,90.00000000,90.00000000,119.99999974
3126,Ba3Er2MoO9,2.0404999999999998,6.06493770,6.06493770,14.84257659,89.75774804,89.75774804,59.83269347
3127,Ba4SnGe2(S4Br)2,2.0212,9.10716900,9.29278000,12.10865300,90.00000000,90.00000000,90.00000000
3128,Ba3V4(PO4)6,2.0378999999999996,10.08244100,10.05073800,10.07723152,89.82967992,90.00000000,90.00000000
3129,AgMoAsO6,2.0208000000000004,6.64904700,7.33854600,10.33176700,90.00000000,90.00000000,90.00000000
3130,Ca3Ti3Si2GeO15,2.0207,6.70533700,7.18747008,26.50565076,89.96020241,89.97495735,65.77504181
3131,Sm2MgSe4,2.0426,6.92259700,8.44646600,14.46574500,90.00000000,90.00000000,90.00000000
3132,Nd2MgS4,2.0347999999999997,7.36872196,7.36872196,7.36872196,110.96405060,110.96405060,106.52512450
3133,Pm2MgSe4,2.0373,6.93855700,8.49315700,14.52406500,90.00000000,90.00000000,90.00000000
3134,KThCuS3,2.0371999999999995,7.35165578,7.35165578,10.58797400,90.00000000,90.00000000,147.68718010
3135,BaP3HNO9,2.0464,12.98832500,7.16401100,12.49424886,68.22327629,90.00000000,90.00000000
3136,YAlN2,2.043399999999999,5.11796300,10.13063800,16.12095600,90.00000000,90.00000000,90.00000000
3137,Li2NbV(PO5)2,2.0204000000000004,6.43196624,10.95804020,12.77963846,90.00000000,90.00000000,90.00000000
3138,Ba3B3N5,2.0193,7.38808974,6.67294902,11.77835546,96.20148365,139.34681043,91.33290379
3139,Li6TeN4,2.0475,6.82605400,6.82605400,4.94251300,90.00000000,90.00000000,90.00000000
3140,Ca2CrWO6,2.0392,5.52861778,5.53014598,7.87532297,90.71389573,90.23267314,90.39150600
3141,Nb2Co4O9,2.0303,5.21538870,5.22624763,14.31858748,89.95136189,89.64674681,59.95610690
3142,MnZn2WO6,2.0449,5.31873200,7.98062782,5.33297043,88.43310783,90.00007645,90.00019795
3143,Li2VOF4,2.036,3.69375419,10.22384766,5.32803450,90.14351280,110.28502402,89.64704016
3144,Rb2NaRhF6,2.0182,6.12720471,6.12720471,6.12720471,60.00000000,60.00000000,60.00000000
3145,AsPO5,2.0202,4.61144700,8.35200500,8.56061800,90.00000000,90.00000000,90.00000000
3146,Na2Sm2Ti3O10,2.019,14.60320788,14.60320788,14.60320788,164.90286601,164.90286601,21.41326413
3147,CaTe3O8,2.0347999999999997,6.93082549,6.93082549,10.23907374,66.13475299,66.13475299,49.50670752
3148,LiV2NiO6,2.0279999999999996,5.61628737,6.92111570,6.92134417,102.48290220,72.01964428,107.97556286
3149,LiVP2O7,2.0415000000000005,6.54440701,10.79531256,7.59659104,94.05909375,80.70924685,107.08116518
3150,Sm4Au2O9,2.0229,6.10067900,11.94805500,11.95746900,90.00000000,90.00000000,90.00000000
3151,Ca2Sb2O7,2.0406,7.40036267,7.40036267,7.40036267,119.96020100,118.56269648,91.28820666
3152,LaMgTiFeO6,2.0286,5.37172554,9.49550401,9.49558682,71.27518279,90.03640746,90.03678717
3153,Mg(AlS2)2,2.0169999999999995,13.13743136,13.13743136,13.13743066,16.25758385,16.25758385,16.25758465
3154,Ba2NbN3,2.0178000000000003,6.74455181,6.74455181,13.38179720,89.39440495,89.39440495,124.76909478
3155,Ba3(AlN2)2,2.0194,6.27119200,10.18969300,10.31969000,90.00000000,90.00000000,90.00000000
3156,Sr3GdRhO6,2.03,6.88334672,6.88334672,6.88334698,91.94852878,91.94852878,91.94852852
3157,MnNb2Zn2O8,2.0331,10.26396936,10.26396936,5.31022688,89.96837921,89.96837921,34.05489531
3158,V2HgO6,2.0183,4.99744500,6.11182500,14.60950900,90.00000000,90.00000000,90.00000000
3159,NaVF4,2.0363,5.44053100,7.73098000,8.15796352,77.17761117,90.00000000,90.00000000
3160,SbO2,2.0328999999999997,6.57781896,6.57781896,5.51001782,77.41637083,77.41637083,43.96829802
3161,ZnS,2.0316,31.54954001,31.54954001,31.54953982,7.01324056,7.01324056,7.01324077
3162,AgPO3,2.0266,6.05356100,7.50292500,14.20412212,60.84249566,90.00000000,90.00000000
3163,Cr2SiO4,2.0375999999999994,5.75563004,5.71184292,6.38524601,76.87411666,116.78975054,120.25464442
3164,BaPr2NiO5,2.0241,3.87899935,6.02595396,6.94121677,115.72306865,106.22043239,90.00774900
3165,CaMn2O4,2.0262,3.20501000,9.80941100,10.19612000,90.00008022,90.00004035,89.99999416
3166,Sr2FeMoO6,2.0295,5.64449782,9.74214301,5.64450656,74.28632175,60.71813735,74.28639129
3167,CrPbO4,2.0357000000000003,7.62051100,6.92266900,8.86000478,53.30436059,90.00000000,90.00000000
3168,V2CoO6,2.0224,3.58512043,5.13342126,13.57456007,81.93894687,97.59772698,110.44850861
3169,TiFeO3,2.0201000000000002,5.16891192,5.16904702,9.87218449,74.81462923,89.98505089,120.00077452
3170,SrTe,2.0435000000000003,4.75469065,4.75469065,4.75469065,60.00000000,60.00000000,60.00000000
3171,MoO3,2.0181,3.76102500,3.96930400,14.42544600,90.00000000,90.00000000,90.00000000
3172,NaFeO2,2.0462,5.43553800,5.79354900,7.26280400,90.00000000,90.00000000,90.00000000
3173,Ca2PbO4,2.0278,3.42657000,5.90108900,9.90764400,90.00000000,90.00000000,90.00000000
3174,AlFeO3,2.0337999999999994,5.04411600,8.66920600,9.37697900,90.00000000,90.00000000,90.00000000
3175,NaLaMnWO6,2.0304,5.71115400,5.63942000,8.10666325,89.82864948,90.00000000,90.00000000
3176,K2PtCl4,2.0300000000000002,7.10585900,7.10585900,4.26140700,90.00000000,90.00000000,90.00000000
3177,CrClO,2.035,3.24860271,3.93994211,8.50672539,90.00000000,90.00000000,90.00000000
3178,VClO,2.034,3.38393942,7.69586402,8.61574320,90.16495205,90.05913548,90.00339639
3179,SnI4,2.0284,13.35761600,13.35761600,13.35761600,90.00000000,90.00000000,90.00000000
3180,BiSBr,2.0352,4.08866300,8.46763900,10.57737500,90.00000000,90.00000000,90.00000000
3181,Rb2PtCl6,2.0431,7.20764549,7.20764549,7.20764549,60.00000000,60.00000000,60.00000000
3182,Na2O,2.0422000000000002,3.95632467,3.95632467,3.95632467,60.00000000,60.00000000,60.00000000
3183,MgH2,2.0231000000000003,3.11332900,5.30076800,5.99679500,90.00000000,90.00000000,90.00000000
3184,HS7N,2.0186,8.12547000,8.50035000,13.87382900,90.00000000,90.00000000,90.00000000
3185,KVBP2HO9,2.036,5.24627341,12.12852198,11.51195566,88.19170448,85.50203262,80.75811830
3186,WO2,2.032,5.05403738,5.05403738,5.05403689,37.39768192,37.39768192,37.39767716
3187,LiV3(P3O10)2,2.0385999999999997,8.61196398,8.61196398,12.57783100,90.00000000,90.00000000,106.71750693
3188,LiVP2O7,2.0207,8.14505200,6.85454300,9.58186519,70.88772200,90.00000000,90.00000000
3189,CrPO4,2.0317,6.28766100,6.34895388,8.95883622,92.16610538,110.44358119,97.57996416
3190,Na4SnO3,2.0227999999999997,8.92870730,8.92870730,5.94702565,83.52458677,83.52458677,141.55607462
3191,NbAlCl8,2.0189,9.92948567,9.92948567,8.74168900,90.00000000,90.00000000,128.38548880
3192,Cs2HgI4,2.0411,8.61498600,8.14143200,11.28658528,69.96286877,90.00000000,90.00000000
3193,V3P4O15,2.0191,5.33217500,12.40073100,17.77819700,90.00000000,90.00000000,90.00000000
3194,S7(N3O4)2,2.024,12.14905300,12.14905300,5.17107800,90.00000000,90.00000000,90.00000000
3195,KNaSe,2.0175,4.85415500,8.14135500,8.77920700,90.00000000,90.00000000,90.00000000
3196,YbSe,2.0324999999999998,4.18312917,4.18312917,4.18312917,60.00000000,60.00000000,60.00000000
3197,In3SnI5,2.0256000000000003,9.08662915,9.08662915,17.83981326,82.53458072,82.53458072,90.20803250
3198,SiCl2,2.0198,4.02709000,7.18939600,13.79623200,90.00000000,90.00000000,90.00000000
3199,Na5InS4,2.0220000000000002,8.85339800,6.88394900,7.87440008,88.99593366,90.00000000,90.00000000
3200,Nb3ClO7,2.0193,3.90802600,11.07918000,15.86173600,90.00000000,90.00000000,90.00000000
3201,Sr5U3O14,2.0422000000000002,11.21530500,11.33356500,11.33454100,90.00000000,90.00000000,90.00000000
3202,SbXe2F9,2.0247999999999995,8.62127035,8.62127035,10.34177645,55.44475267,55.44475267,58.02688845
3203,Ta2CoO6,2.0382,4.80487601,10.38346600,9.61059306,62.44566446,89.99861051,90.00505092
3204,Li3V3(PO4)4,2.0374,8.11389700,7.67040900,10.19882554,85.71823030,90.00000000,90.00000000
3205,Tm2S3,2.0227000000000004,13.61010067,13.61010067,13.61010067,144.82025059,144.82025059,50.60247281
3206,Al2FeO4,2.0233999999999996,5.81678008,5.82145223,17.52956691,60.01937809,60.05202023,60.13182367
3207,Zr4N2O5,2.0389,8.89590800,8.89653060,8.90680810,109.37363165,109.36763904,109.58284745
3208,Gd2Zr2O7,2.0229000000000004,7.56035200,7.58168000,10.59337200,90.00000000,90.00000000,90.00000000
3209,TaBi3O7,2.0453,3.93526121,3.93526121,12.90335265,80.91185019,80.91185019,57.25073346
3210,SrLaMnWO6,2.0439,5.76094015,5.76094015,5.76094015,119.60901713,119.60901713,90.67854681
3211,NaGd3Ti2(SbO7)2,2.0437000000000003,7.32399700,7.35683800,12.67799081,54.94585857,90.00000000,90.00000000
3212,La2TeO2,2.0481999999999996,7.21803274,7.21803274,7.21803274,146.70943847,146.70943847,47.79419947
3213,Gd2SO2,2.0422999999999996,3.86870405,3.86870405,6.69502300,90.00000000,90.00000000,120.00000083
3214,CoSeO4,2.0441000000000003,4.98819300,6.87251909,9.11837901,89.98853783,90.00094022,89.99667206
3215,NaFeBP2H3O10,2.0159,6.70833250,6.70833250,9.27992590,69.79568790,69.79568790,76.69728998
3216,CsSmZnSe3,2.0223,8.40428658,8.40428658,11.23331400,90.00000000,90.00000000,150.74043984
3217,Rb2HgO2,2.0300000000000002,7.80863328,7.80863328,7.80863328,148.49530270,148.49530270,45.15472827
3218,CsSmCdSe3,2.0215,8.47050667,8.47050667,11.38591900,90.00000000,90.00000000,150.15336735
3219,Al2FeO4,2.0381,5.82755134,5.83616304,35.04382105,59.99175739,60.10591032,59.94658287
3220,Ca12Al14O33,2.0478000000000005,10.44952100,10.46028919,10.46896361,109.32709100,109.91832318,109.09723593
3221,TiZn2O4,2.0453,10.40996783,10.40996783,6.11163925,89.86391624,89.86391624,71.74855437
3222,Ga2S3,2.0263999999999998,6.58038061,6.58038061,7.12142118,63.37942310,63.37942310,59.57742874
3223,Fe(PO3)3,2.0461,6.70235132,14.72354903,6.89783480,101.59093053,86.21021002,86.84880586
3224,BaY2CoO5,2.0276,5.77002500,7.15852900,12.39054000,90.00000000,90.00000000,90.00000000
3225,Ba2FeCoF9,2.0227,18.01440000,5.79558600,9.47184875,53.38691726,90.00000000,90.00000000
3226,K2U(WO5)2,2.0234,7.70159600,8.78539700,14.33855700,90.00000000,90.00000000,90.00000000
3227,AsS,2.032,10.70803500,7.68063100,13.71875427,59.46799901,90.00000000,90.00000000
3228,Tl2TeO3,2.0188,5.44089000,11.47296500,17.07386400,90.00000000,90.00000000,90.00000000
3229,MnClO3,2.0439,6.43204110,6.43204110,5.24479400,90.00000000,90.00000000,109.38919389
3230,Tl3VS4,2.0454,6.64646611,6.64646611,6.64646611,109.47122063,109.47122063,109.47122063
3231,ZnS,2.031,3.85196788,3.85196788,81.88390600,90.00000000,90.00000000,119.99999788
3232,ZnS,2.0265,3.85291675,3.85291675,75.59097700,90.00000000,90.00000000,120.00001287
3233,CsGeBiS4,2.0174000000000003,7.03109600,6.70322700,19.19211282,70.79525427,90.00000000,90.00000000
3234,ZnS,2.0181000000000004,3.85390197,3.85390197,75.56053900,90.00000000,90.00000000,119.99999947
3235,AsXeF11,2.025,16.68315800,6.15816500,8.30783910,87.25882793,90.00000000,90.00000000
3236,NaSb(PS3)2,2.0415999999999994,7.41002200,11.42595500,11.93495585,71.04123541,90.00000000,90.00000000
3237,ZnS,2.0201000000000002,3.85305344,3.85305344,88.15472700,90.00000000,90.00000000,119.99999039
3238,ZnS,2.0175,3.85313766,3.85313766,88.14462000,90.00000000,90.00000000,119.99999417
3239,ZnS,2.0206,3.85312154,3.85312154,88.12965800,90.00000000,90.00000000,119.99999203
3240,ZnS,2.035,3.85036483,3.85036483,75.56650500,90.00000000,90.00000000,120.00001432
3241,KMoPClO5,2.0469,6.55381400,6.55381400,7.43011900,90.00000000,90.00000000,90.00000000
3242,ZnS,2.03,3.85320439,3.85320439,107.07230200,90.00000000,90.00000000,120.00000669