,pretty_formula,bandgap,cell_length_a,cell_lentgh_b,cell_lentgh_c,cell_angle_alpha,cell_angle_beta,cell_angle_gamma
408,Li10Mn2V3Cr3O16,1.8172000000000001,6.00516500,6.04933458,9.98708303,90.39569789,90.20802366,119.55722552
409,LiMn3OF5,1.8049000000000002,8.73846957,8.73846957,10.14066707,55.38958332,55.38958332,71.23459993
410,Ti9SnO20,1.8013,7.59857912,7.59857912,7.25883794,85.96741131,85.96741131,51.56466035
411,Li3Fe4(BO3)4,1.8227,9.00577200,5.26669300,10.27240733,88.18258972,90.00000000,90.00000000
412,Li2VO2F,1.8141999999999996,5.13099459,5.93920482,7.86264398,100.88303529,70.52889016,90.00075203
413,LiMn2OF3,1.8294,6.24572426,6.38033553,9.09444392,89.99631521,90.55712041,90.00903883
414,Li2VFe(P2O7)2,1.8152,7.04562700,8.26788187,14.09003921,90.02866087,99.56807153,90.14606906
415,LiFe2(BO3)2,1.8037999999999998,8.93649800,5.28321300,10.34232958,88.83616908,90.00000000,90.00000000
416,LiFe2(BO3)2,1.8018,5.24505000,5.27966975,10.13586467,91.37103037,90.04314200,119.57764992
417,LiVFeP2(HO5)2,1.8329,5.31829286,7.42960118,10.51918410,74.41347251,98.29237458,70.11103690
418,Li3Fe3(BO3)4,1.8121999999999998,9.06708700,5.22159000,10.99174009,64.53877478,90.00000000,90.00000000
419,V(Bi5O8)5,1.8281999999999998,9.01914616,9.01914616,14.73432942,89.97315231,89.97315231,70.47299616
420,Li5Fe5Si7O24,1.8272,7.85303300,7.95467883,9.78001688,91.08665429,91.45950460,90.53503727
421,LiVF5,1.8174,5.47731500,5.66208172,7.38182927,104.77394407,99.48962599,110.17100215
422,TmSeO3,1.8238000000000003,12.41658600,5.91727200,8.73391715,73.98525050,90.00000000,90.00000000
423,Cs3LaO3,1.8263999999999996,7.82800300,8.63981000,12.47856534,85.38038357,90.00000000,90.00000000
424,Li4MnV(PO4)3,1.8179,8.43967400,8.45104975,9.24522598,90.79336992,116.72970348,119.23999661
425,Na2SnBPO7,1.8310000000000002,6.76520700,5.41579000,9.40690245,88.01858312,90.00000000,90.00000000
426,Rb5FeO4,1.818,11.98825500,12.54154200,12.77894200,90.00000000,90.00000000,90.00000000
427,Na3AuO3,1.8245,9.57381800,9.57381800,4.56254200,90.00000000,90.00000000,90.00000000
428,SbSO4F3,1.8163,5.46264300,9.19941200,12.75350200,90.00000000,90.00000000,90.00000000
429,YSeO3,1.8220000000000005,12.49396000,6.03688400,8.87688846,73.69350421,90.00000000,90.00000000
430,Li2AlNiO4,1.8112,4.98509500,6.35900100,10.74494200,90.00000000,90.00000000,90.00000000
431,LiVSiCO7,1.8074,6.38173200,5.33274400,8.68190912,84.06591350,90.00000000,90.00000000
432,Nb2Ge2O7,1.8118,5.76306400,8.01266200,13.70092448,84.16824527,90.00000000,90.00000000
433,CaPbI6,1.8245999999999998,16.44070656,13.91268564,12.69844972,76.16102095,55.25225559,48.58672346
434,SbH(OF3)2,1.8318999999999999,5.17411300,7.30153457,8.13495546,90.93953145,97.22151606,91.96796561
435,NaVSiCO7,1.8274,6.42612900,5.40774100,9.06236719,86.73632066,90.00000000,90.00000000
436,CrFe(PO4)2,1.8269,8.39419796,8.39419796,8.39419839,61.67432466,61.67432466,61.67432644
437,Li6CrO4,1.8245,4.61753407,6.77837500,6.78074010,89.99999175,90.01989290,89.99768854
438,Cr5O12,1.8226,8.98481500,9.05956100,12.53554800,90.00000000,90.00000000,90.00000000
439,K2Li3NiO4,1.8115999999999999,8.79584000,5.54562000,10.96674510,68.49955377,90.00000000,90.00000000
440,Li2NbFe3O8,1.801,6.00715043,6.00715043,9.81189600,90.00000000,90.00000000,120.00000473
441,Li2V(Si2O5)3,1.8219,9.75245569,9.75245569,9.75245569,131.77905279,118.29041557,81.94053430
442,LiV2OF5,1.8353000000000002,5.21383129,5.21294201,13.96445701,90.00380861,89.99324286,120.00000754
443,LiMn2PO5,1.8299999999999996,6.45592200,7.82908000,8.64602600,90.00000000,90.00000000,90.00000000
444,LiV2OF5,1.8291,5.13638200,5.49879512,7.66964655,84.58341535,89.99738745,89.99978199
445,Ca2Ti6N2O11,1.8278999999999996,7.64547296,7.64547296,9.39857038,80.56721647,80.56721647,28.81153147
446,Sc2Pt2O7,1.8068999999999997,7.05115144,7.05115144,7.05115144,60.00000000,60.00000000,60.00000000
447,Cr(Si2O5)2,1.8198999999999999,7.16063100,7.97909783,9.56010230,105.05403618,101.65791156,112.90392048
448,Gd2W2O9,1.8333000000000002,5.40389000,5.50792900,23.83693400,90.00000000,90.00000000,90.00000000
449,Li9Fe3(OF7)2,1.8078999999999998,5.93126600,5.99153582,10.30861574,90.79282769,106.13012908,119.53694136
450,Li4V3OF11,1.8016,5.28245400,5.51333570,16.01823178,80.94387070,89.68411429,88.51019100
451,Na2VO3,1.8256000000000001,10.25002801,9.76330013,5.52358281,78.89776949,69.17785147,31.92437904
452,Ti3MnO8,1.8234000000000001,5.93734100,5.93733270,8.91321400,90.00039437,89.99980063,119.99998942
453,Ba4Li(SbO4)3,1.8302,7.23019322,7.23019322,7.23019322,109.47122063,109.47122063,109.47122063
454,Li2FeO2F,1.8154000000000001,5.11365160,5.11365116,5.23238338,77.95630674,102.04311538,62.80108431
455,CaSnS3,1.8289999999999997,7.34034054,7.34034054,7.34034040,54.81415603,54.81415603,54.81415303
456,Pr3SiAgS7,1.8303000000000003,10.37719929,10.37719929,5.80916800,90.00000000,90.00000000,119.99999547
457,V3CoO8,1.8137,9.80227457,9.80227457,9.80227457,128.25773326,118.87489822,84.13996264
458,Li2VO2F,1.8162000000000003,5.17433549,5.17433549,9.49577210,79.84598845,79.84598845,109.86757847
459,LiMn2OF3,1.8355000000000001,6.26688384,10.89477569,6.41879977,106.38799895,119.23061131,89.98219692
460,Zr7VO16,1.8105000000000002,6.92282797,13.20485555,7.27427302,103.46245346,64.14110412,90.52408219
461,Ba4PtO6,1.8101000000000003,7.37487406,7.37487406,7.37487342,89.63498609,89.63498609,89.63498599
462,K2Sn2S5,1.8222999999999998,6.90994473,6.90994473,11.71380242,75.31963090,75.31963090,70.79874094
463,RbAu3Se2,1.831,6.28977394,6.28977394,5.63066500,90.00000000,90.00000000,119.99999938
464,Mg(AlC)2,1.8171999999999997,3.39064637,3.39064637,5.82371600,90.00000000,90.00000000,120.00000725
465,LiMgP,1.8135999999999997,4.25853503,4.25853503,4.25853503,60.00000000,60.00000000,60.00000000
466,LiCaAs,1.8116,4.72466689,4.72466689,4.72466689,60.00000000,60.00000000,60.00000000
467,CaReN3,1.8099999999999998,7.45025050,7.45025050,6.28517872,74.40222735,74.40222735,83.94091052
468,BaReN3,1.8284999999999998,8.02590000,8.02590000,6.24121210,80.70891554,80.70891554,90.66587706
469,LiBeP,1.8087,3.60609200,3.60609200,6.00818200,90.00000000,90.00000000,90.00000000
470,AgBiO2,1.8194000000000004,3.55443000,6.23223000,6.87578964,81.20002891,90.00000000,90.00000000
471,NiAgF3,1.8302999999999998,5.67314249,5.67314249,7.63391100,90.00000000,90.00000000,148.82498593
472,NaPrSe2,1.8334000000000001,7.47676440,7.47676440,7.47676466,33.49736472,33.49736472,33.49736554
473,NaNdSe2,1.8264,7.47669965,7.47669965,7.47669976,33.26624476,33.26624476,33.26624703
474,SnF3,1.8242,4.19224600,7.50320316,9.29220052,89.24179776,86.64429164,85.79310946
475,SbO2,1.834,6.07308700,7.92605550,8.75307771,83.98499505,89.70599470,89.38304712
476,BiF5,1.8064,5.66086219,5.67535638,8.23335605,98.03781851,108.07694957,110.55918056
477,Zn(BiO2)2,1.8214999999999995,3.38277100,11.06907000,11.42710300,90.00000000,90.00000000,90.00000000
478,CaSnO2,1.8275000000000001,3.48851000,8.95816680,10.20061131,86.66502734,81.82958969,78.86883573
479,VZnPO5,1.8163999999999998,5.47059355,5.47059355,7.20872623,72.47261205,72.47261205,97.16836900
480,Mg3Mo2O7,1.8353000000000002,9.74352636,9.74352636,5.41481400,90.00000000,90.00000000,148.08460461
481,Ca2TaBiO6,1.8253999999999992,8.13101500,5.77288700,5.98532536,88.95349153,90.00000000,90.00000000
482,Mg2TaMoO6,1.8232999999999997,7.74334400,5.34384200,5.46176915,88.63400821,90.00000000,90.00000000
483,Ca(WO2)2,1.8152,6.63490738,6.63490738,6.63490738,60.00000000,60.00000000,60.00000000
484,Ca2BiWO6,1.8101000000000003,5.96014200,5.67421300,10.00053022,56.05337247,90.00000000,90.00000000
485,Ca2TaWO6,1.8190999999999997,5.75036100,5.57214400,9.74665312,55.11154159,90.00000000,90.00000000
486,Ca(BiO2)2,1.8276000000000003,7.01284265,7.01284265,17.19826402,89.78049360,89.78049360,59.84520379
487,MgCrAsO5,1.8266999999999998,6.05044900,7.72152500,8.49629800,90.00000000,90.00000000,90.00000000
488,Ca2MoWO6,1.8178,5.60569200,5.62752861,5.71474260,60.58340427,60.67811640,60.79860257
489,SbF5,1.8192,5.95535646,5.95535646,8.55096000,90.00000000,90.00000000,144.29177365
490,Mn2ZnO4,1.8141000000000003,6.02585027,6.02585027,6.02585027,118.60190591,118.60190591,92.43912319
491,Ca3Cr3(AsO4)4,1.8288000000000002,5.22903100,9.34354700,17.35693136,63.20877392,90.00000000,90.00000000
492,AlCo(WO4)2,1.8136999999999999,5.05992400,5.47169946,5.74262544,106.45656337,89.85486036,110.87107161
493,Ca(SnO2)2,1.8043999999999993,6.77816991,6.77816991,6.77816991,124.08235588,112.16078874,93.57809569
494,Mg(MoO2)2,1.8118999999999996,5.51460800,6.37380600,10.54999400,90.00000000,90.00000000,90.00000000
495,YMo(WO4)2,1.8193000000000001,5.82203500,5.38522300,11.10792828,63.53074678,90.00000000,90.00000000
496,W3O8,1.8159,5.85316700,5.07225600,10.84266188,62.75643741,90.00000000,90.00000000
497,Cr3(FeO6)2,1.8029000000000002,6.69826900,8.49094892,9.92509227,107.57466121,104.57947600,103.09675991
498,MgTi(GeO3)2,1.8308999999999997,8.50588200,5.36389700,11.89722059,78.59195259,90.00000000,90.00000000
499,SbO2,1.8343000000000003,6.30209500,7.48059151,15.69524509,87.53495257,87.11740444,65.23127076
500,BaTe,1.8555,5.01321596,5.01321596,5.01321596,60.00000000,60.00000000,60.00000000
501,GeC,1.8485999999999994,3.25562852,3.25562852,3.25562852,60.00000000,60.00000000,60.00000000
502,Cs2Se,1.8398,6.01503778,6.01503778,6.01503778,60.00000000,60.00000000,60.00000000
503,Cd4SF6,1.8553000000000002,8.00521500,8.00521500,5.61137000,90.00000000,90.00000000,90.00000000
504,ZnCdSe2,1.8588,4.21732800,4.21732800,5.99646500,90.00000000,90.00000000,90.00000000
505,Rb5GaO4,1.8405,7.07078700,12.10172000,21.62031500,90.00000000,90.00000000,90.00000000
506,Mg2VN3,1.8392000000000004,5.75123937,5.75123937,5.11987700,90.00000000,90.00000000,119.17427117
507,Te2Mo,1.8610000000000002,3.55871064,3.55871064,40.69329000,90.00000000,90.00000000,120.00001184
508,KYMg14O16,1.8395000000000001,4.43111400,8.68321900,8.87288000,90.00000000,90.00000000,90.00000000
509,KMg14AlO16,1.8626999999999994,8.57551300,8.57551300,4.38029100,90.00000000,90.00000000,90.00000000
510,SrMg30VO32,1.8605999999999998,8.61418800,8.61418800,8.60807600,90.00000000,90.00000000,90.00000000
511,Mg30VSnO32,1.8506,8.60345800,8.60345800,8.59789200,90.00000000,90.00000000,90.00000000
512,RbMg30CoO32,1.8473000000000002,8.63005400,8.63005400,8.59969500,90.00000000,90.00000000,90.00000000
513,Mg30FeSiO32,1.8409000000000004,8.55995800,8.55995800,8.54338600,90.00000000,90.00000000,90.00000000
514,CaMg30SiO32,1.8662999999999998,8.58981100,8.58981100,8.59041300,90.00000000,90.00000000,90.00000000
515,Mg30MnSnO32,1.8468999999999998,8.61459600,8.61459600,8.61021700,90.00000000,90.00000000,90.00000000
516,BaMg30CO32,1.8535000000000004,8.64961000,8.64961000,8.61482500,90.00000000,90.00000000,90.00000000
517,BaSrMg30O32,1.8529999999999998,8.68943200,8.68943200,8.88799000,90.00000000,90.00000000,90.00000000
518,RbMg30BiO32,1.8610999999999995,8.66354200,8.66354200,8.81843900,90.00000000,90.00000000,90.00000000
519,CsLiMg30O31,1.8443000000000005,8.55223000,8.72609700,8.79606400,90.00000000,90.00000000,90.00000000
520,K3SbO4,1.8606,7.47660100,5.78026900,6.63620247,71.51557624,90.00000000,90.00000000
521,Cs2PdCl4,1.8449,7.58317400,7.58317400,4.76654200,90.00000000,90.00000000,90.00000000
522,Cs2Se,1.8508999999999998,6.07073635,6.07073635,8.21441100,90.00000000,90.00000000,120.00000382
523,Sr2LiReO6,1.8674,5.65854668,5.65854668,5.65854668,120.47968845,120.47968845,89.17114404
524,Sr2CrSbO6,1.8578999999999999,5.64154400,5.64600628,5.64774931,60.55236752,60.03461624,60.02763093
525,NaGaTe2,1.8646,7.46165110,7.46165110,7.46165110,122.77580111,122.77580111,85.25585916
526,Mg30BiBO32,1.8600000000000003,8.65171800,8.65171800,8.55292900,90.00000000,90.00000000,90.00000000
527,TiZn2O4,1.8453,6.07440300,6.07440300,12.83441400,90.00000000,90.00000000,90.00000000
528,Sr2Ti6N2O11,1.8466999999999998,7.92334221,7.92334221,9.30001486,81.09532498,81.09532498,27.89579459
529,LiV4P7O24,1.8537,10.28947200,10.37100047,10.79039404,108.19632572,111.98011903,104.95357162
530,Na4Mg(GeSe3)2,1.8583999999999998,7.19403597,7.19403597,7.15296969,81.00929644,81.00929644,114.14906479
531,Ag3SbS3,1.8641,7.60327417,7.60327417,7.60327403,106.89475806,106.89475806,106.89475975
532,Sc2MnNiO6,1.8476000000000004,5.05269453,5.38846200,7.50071000,89.99998173,90.79277284,89.99979177
533,NdScS3,1.8592999999999997,6.51551300,7.17013400,9.60943300,90.00000000,90.00000000,90.00000000
534,NaNbO3,1.8692999999999997,5.56281900,5.61153900,7.90948000,90.00000000,90.00000000,90.00000000
535,K2AlTlI6,1.8657,8.62592633,8.62592633,8.62592633,60.00000000,60.00000000,60.00000000
536,NaLi2IrF6,1.8638999999999997,5.89676992,5.89676992,5.89676992,60.00000000,60.00000000,60.00000000
537,Cs2AlTlI6,1.8437,8.71881470,8.71881470,8.71881470,60.00000000,60.00000000,60.00000000
538,K2YCuI6,1.8509999999999998,8.33558828,8.33558828,8.33558828,60.00000000,60.00000000,60.00000000
539,Cs2ScCuF6,1.8406000000000002,6.27019160,6.27019160,6.27019160,60.00000000,60.00000000,60.00000000
540,Cs2GdAuCl6,1.8479,7.72317724,7.72317724,7.72317724,60.00000000,60.00000000,60.00000000
541,Rb2InAgF6,1.8556,6.43963560,6.43963560,6.43963560,60.00000000,60.00000000,60.00000000
542,Rb2InGaCl6,1.8529,7.65106791,7.65106791,7.65106791,60.00000000,60.00000000,60.00000000
543,Rb2AlTlI6,1.8525,8.66053779,8.66053779,8.66053779,60.00000000,60.00000000,60.00000000
544,KInSe2,1.8512,7.22249043,7.22249043,7.22249043,117.02835427,117.02835427,95.22903489
545,Zn3Si3(BiO6)2,1.8717999999999995,10.82357510,10.82357510,10.82357510,109.47122063,109.47122063,109.47122063
546,SrLiTi4CrO11,1.8381000000000003,13.95195600,5.86433800,11.59200305,59.66532928,90.00000000,90.00000000
547,SrHo31Al2Si14N13O59,1.8576999999999995,9.38202100,9.96766114,18.38640239,98.31545313,94.59628070,91.95756842
548,Nb2NiO6,1.8655999999999997,5.68803859,5.68797360,7.49293683,108.22415118,108.22384085,72.00856077
549,Na8Al6Si6O25,1.8474000000000004,8.95776446,8.95776446,8.95776412,90.30195922,90.30195922,90.30196099
550,Li6Mn3CoO10,1.8624,5.04578000,5.15624230,7.66526415,103.97265515,107.38041291,100.55386012
551,Li7Mn2(CoO4)3,1.8392999999999997,6.58212432,6.58212432,5.04913516,82.65892032,82.65892032,83.69457979
552,Li9Mn2Co5O16,1.8396,5.00642700,5.17726853,11.28450033,82.18196936,86.55208951,79.19132910
553,Na3CoO3,1.8647999999999998,8.30632331,8.30632331,8.30632331,109.47122063,109.47122063,109.47122063
554,Li2VFe(P2O7)2,1.8527,7.04117800,8.25282112,14.05141360,89.98303987,99.42051041,90.13563015
555,Ba4Ti3O10,1.8494000000000002,4.06435428,4.06435428,29.56538900,90.00000000,90.00000000,90.11598982
556,Sr2H4Pd,1.8437000000000001,5.52058600,7.64964500,9.74596600,90.00000000,90.00000000,90.00000000
557,Si2H2O3,1.8456000000000001,11.04558981,11.04558981,14.45372335,55.28761613,55.28761613,48.26553054
558,Rb2Te(MoO5)3,1.8676,9.92681300,10.64095800,17.17778381,67.51168333,90.00000000,90.00000000
559,MoH4O5,1.8549,4.28476100,6.48393013,8.09726675,89.72778625,89.61481827,80.68205412
560,BaI2O,1.8629999999999998,4.64434600,9.81036800,12.27275500,90.00000000,90.00000000,90.00000000
561,Fe8H10O17,1.8595000000000002,6.16817500,10.55339332,10.73562086,89.87882441,89.84599596,89.11731830
562,CaSO6,1.8447,17.52331300,5.69855800,6.72381271,57.48063869,90.00000000,90.00000000
563,Cd3S3O20,1.8436000000000001,9.70449700,10.00816722,10.00874666,85.21223766,85.26911889,85.23411239
564,BaSnHgS4,1.8559,6.73526500,11.02901600,11.13522000,90.00000000,90.00000000,90.00000000
565,Cs2HgTe,1.8575,6.43619199,6.43619199,6.43619199,60.00000000,60.00000000,60.00000000
566,CsTaO3,1.8626999999999998,4.14415800,4.14415800,4.14415800,90.00000000,90.00000000,90.00000000
567,K2U3(TeO7)2,1.8661999999999999,7.01207700,7.12017039,8.14767670,106.40659504,102.13105460,97.58858557
568,PrScS3,1.8377,6.53540000,7.18761300,9.62116000,90.00000000,90.00000000,90.00000000
569,Sr(LuS2)2,1.842,3.92774300,11.98181200,14.13539500,90.00000000,90.00000000,90.00000000
570,BiW2(Br4O)2,1.8451,7.79877300,9.41464624,11.63909485,89.41557788,80.29517501,88.51540664
571,Ba4In2Te2Se5,1.8522999999999996,8.76223100,8.76223100,11.49247100,90.00000000,90.00000000,90.00000000
572,Ba2GaAsSe5,1.8619999999999999,9.14495600,9.38916200,12.79951600,90.00000000,90.00000000,90.00000000
573,Ag2Pd(NO2)4,1.8414,15.04286900,7.72003000,8.56586628,56.71005135,90.00000000,90.00000000
574,Na7UH4S4ClO20,1.8719999999999999,5.44524765,11.07959593,34.16031693,85.89903866,85.42992572,75.76838810
575,H9RhC5NO5,1.8601999999999999,6.79311200,7.82248340,10.24452485,97.79645661,100.69162035,111.56475786
576,AgAsS16N16(O4F3)2,1.8442,11.80276200,12.39979125,12.98527745,113.43978171,96.70017819,88.60876766
577,Cs8In2O7,1.8569,19.14799400,7.42831600,7.56680614,61.10101284,90.00000000,90.00000000
578,Ag2H2C2N6O13,1.8432,8.82868500,9.17245800,15.59310700,90.00000000,90.00000000,90.00000000
579,K2Pd(NO3)4,1.8462,7.66150400,8.00216500,9.60727899,80.50473694,90.00000000,90.00000000
580,SbN2F5,1.8515,15.43611400,6.58376300,7.01117082,89.16259451,90.00000000,90.00000000
581,KHgH2I3O,1.8546,8.69724500,9.64158800,11.98207100,90.00000000,90.00000000,90.00000000
582,Ba4NaGe3S10Cl,1.8498999999999999,9.97263503,9.97263503,12.32710000,90.00000000,90.00000000,119.99999357
583,Dy4Te3N2,1.8379000000000003,11.74376500,7.28704100,13.06959678,57.63442355,90.00000000,90.00000000
584,Cs2Hg(BSe)9,1.8706999999999998,10.11274400,10.95044036,11.27099281,100.09265820,90.47927536,116.07080375
585,Sr5Ti8O21,1.8578999999999999,5.65100865,15.71211447,32.01610516,90.00000000,90.80366041,90.00000000
586,TiP2(S4Cl)2,1.8405,13.04109700,7.17838000,17.56307235,66.58659882,90.00000000,90.00000000
587,C,1.8637000000000001,4.71844100,10.10800500,15.70374058,73.92420511,90.00000000,90.00000000
588,CoP3H33C11I,1.8674,9.42183135,14.55573047,16.83083137,90.00000000,90.00000000,89.24444071
589,SiC,1.8603000000000005,3.09485085,3.09485085,48.12149689,88.15724276,88.15724276,60.00001471
590,Ba5(GaSe4)2,1.8701,13.51106937,13.51106937,12.42941200,90.00000000,90.00000000,123.96938313
591,Ba2TaFeO6,1.8622999999999998,5.79980013,5.79980013,10.04554850,73.22134512,90.00000000,120.00000000
592,Cs2ZrI6,1.8481999999999998,8.54561172,8.54561172,8.54561172,60.00000000,60.00000000,60.00000000
593,ZrHg3(SBr3)2,1.8558999999999999,7.66403200,7.14360900,13.67918868,88.52010932,90.00000000,90.00000000
594,Tl4GeI6,1.8389999999999995,9.28207400,9.28207400,10.30934000,90.00000000,90.00000000,90.00000000
595,Tm3Fe5O12,1.863,10.78449657,10.78449657,10.78449657,109.47122063,109.47122063,109.47122063
596,SrMn(GeO3)2,1.8571000000000004,5.60888205,7.10051073,14.20244602,84.24778936,78.96677628,78.96014370
597,Sr2ScBiO6,1.8390000000000004,5.90504307,5.90504307,5.90504307,60.00000000,60.00000000,60.00000000
598,Sr3SbI3,1.8384999999999998,11.68086578,11.68086578,11.68086578,109.47122063,109.47122063,109.47122063
599,Rb2Pb2O3,1.8684999999999996,7.76307943,7.76307943,7.76307943,109.47122063,109.47122063,109.47122063
600,Na3Zn2(WO4)3,1.8480999999999999,9.32191935,9.32191935,7.38881530,74.47123438,74.47123438,98.39691740
601,NaFe2(PO4)2,1.8716,5.14564400,8.95458266,9.04864552,97.10925844,104.69509241,101.55618180
602,MgFeBO4,1.8677000000000001,3.12958100,9.35180600,9.49204600,90.00000000,90.00000000,90.00000000
603,LiV(WO4)2,1.8408999999999995,5.03209271,7.46716657,7.46728957,101.49182684,90.61559865,90.61447129
604,Mn3Ga2(GeO4)3,1.8660999999999999,10.55969716,10.55969716,10.55969716,109.47122063,109.47122063,109.47122063
605,K5Zn4Sn5H4S17N,1.8618000000000001,11.08670981,11.08670981,11.08670981,101.23772816,101.23772816,127.60682253
606,HoBeNF6,1.8695,6.00697400,6.54714100,7.35061999,69.72596216,90.00000000,90.00000000
607,Gd2MnNiO6,1.8680000000000003,5.65200300,5.34112600,9.28340977,55.32216594,90.00000000,90.00000000
608,Fe2Co3H4(Se3O10)2,1.8406999999999998,6.58395900,8.12713682,9.04450609,85.86972320,78.72490322,76.25012169
609,ErFeGe2O7,1.8382,6.94121224,6.94121224,6.68358619,70.04640805,70.04640805,77.95179939